 Entering Gaussian System, Link 0=g09
 Initial command:
 /projects/nrel/apps/gaussian/g09/B.01/g09/l1.exe /scratch/hmayes/2H1pm6/Gau-8530.inp -scrdir=/scratch/hmayes/2H1pm6/
 Default is to use a total of   8 processors:
                                8 via shared-memory
                                1 via Linda
 Entering Link 1 = /projects/nrel/apps/gaussian/g09/B.01/g09/l1.exe PID=      8531.
  
 Copyright (c) 1988,1990,1992,1993,1995,1998,2003,2009,2010,
            Gaussian, Inc.  All Rights Reserved.
  
 This is part of the Gaussian(R) 09 program.  It is based on
 the Gaussian(R) 03 system (copyright 2003, Gaussian, Inc.),
 the Gaussian(R) 98 system (copyright 1998, Gaussian, Inc.),
 the Gaussian(R) 94 system (copyright 1995, Gaussian, Inc.),
 the Gaussian 92(TM) system (copyright 1992, Gaussian, Inc.),
 the Gaussian 90(TM) system (copyright 1990, Gaussian, Inc.),
 the Gaussian 88(TM) system (copyright 1988, Gaussian, Inc.),
 the Gaussian 86(TM) system (copyright 1986, Carnegie Mellon
 University), and the Gaussian 82(TM) system (copyright 1983,
 Carnegie Mellon University). Gaussian is a federally registered
 trademark of Gaussian, Inc.
  
 This software contains proprietary and confidential information,
 including trade secrets, belonging to Gaussian, Inc.
  
 This software is provided under written license and may be
 used, copied, transmitted, or stored only in accord with that
 written license.
  
 The following legend is applicable only to US Government
 contracts under FAR:
  
                    RESTRICTED RIGHTS LEGEND
  
 Use, reproduction and disclosure by the US Government is
 subject to restrictions as set forth in subparagraphs (a)
 and (c) of the Commercial Computer Software - Restricted
 Rights clause in FAR 52.227-19.
  
 Gaussian, Inc.
 340 Quinnipiac St., Bldg. 40, Wallingford CT 06492
  
  
 ---------------------------------------------------------------
 Warning -- This program may not be used in any manner that
 competes with the business of Gaussian, Inc. or will provide
 assistance to any competitor of Gaussian, Inc.  The licensee
 of this program is prohibited from giving any competitor of
 Gaussian, Inc. access to this program.  By using this program,
 the user acknowledges that Gaussian, Inc. is engaged in the
 business of creating and licensing software in the field of
 computational chemistry and represents and warrants to the
 licensee that it is not a competitor of Gaussian, Inc. and that
 it will not use this program in any manner prohibited above.
 ---------------------------------------------------------------
  

 Cite this work as:
 Gaussian 09, Revision B.01,
 M. J. Frisch, G. W. Trucks, H. B. Schlegel, G. E. Scuseria, 
 M. A. Robb, J. R. Cheeseman, G. Scalmani, V. Barone, B. Mennucci, 
 G. A. Petersson, H. Nakatsuji, M. Caricato, X. Li, H. P. Hratchian, 
 A. F. Izmaylov, J. Bloino, G. Zheng, J. L. Sonnenberg, M. Hada, 
 M. Ehara, K. Toyota, R. Fukuda, J. Hasegawa, M. Ishida, T. Nakajima, 
 Y. Honda, O. Kitao, H. Nakai, T. Vreven, J. A. Montgomery, Jr., 
 J. E. Peralta, F. Ogliaro, M. Bearpark, J. J. Heyd, E. Brothers, 
 K. N. Kudin, V. N. Staroverov, T. Keith, R. Kobayashi, J. Normand, 
 K. Raghavachari, A. Rendell, J. C. Burant, S. S. Iyengar, J. Tomasi, 
 M. Cossi, N. Rega, J. M. Millam, M. Klene, J. E. Knox, J. B. Cross, 
 V. Bakken, C. Adamo, J. Jaramillo, R. Gomperts, R. E. Stratmann, 
 O. Yazyev, A. J. Austin, R. Cammi, C. Pomelli, J. W. Ochterski, 
 R. L. Martin, K. Morokuma, V. G. Zakrzewski, G. A. Voth, 
 P. Salvador, J. J. Dannenberg, S. Dapprich, A. D. Daniels, 
 O. Farkas, J. B. Foresman, J. V. Ortiz, J. Cioslowski, 
 and D. J. Fox, Gaussian, Inc., Wallingford CT, 2010.
 
 ******************************************
 Gaussian 09:  EM64L-G09RevB.01 12-Aug-2010
                13-Jun-2012 
 ******************************************
 %chk=/home/hmayes/gaussian/oxane/chks/2H1pm6.chk
 %mem=10GB
 %nproc=8
 Will use up to    8 processors via shared memory.
 Default route:  MaxDisk=16GB
 ------------------------------------
 # opt freq=noraman pm6 geom=allcheck
 ------------------------------------
 1/14=-1,18=20,19=15,26=1,29=7,38=1/1,3;
 2/9=110,12=2,40=1/2;
 3/5=2,14=-4,16=1,25=1,41=3900000,71=1/1,2,3;
 4/35=1/1;
 5/5=2,35=1,38=5/2;
 6/7=2,8=2,9=2,10=2,28=1/1;
 7//1,2,3,16;
 1/14=-1,18=20,19=15/3(2);
 2/9=110/2;
 99//99;
 2/9=110/2;
 3/5=2,14=-2,16=1,25=1,41=3900000,71=1,135=20/1,2,3;
 4/5=5,16=3,35=1/1;
 5/5=2,35=1,38=5/2;
 7//1,2,3,16;
 1/14=-1,18=20,19=15/3(-5);
 2/9=110/2;
 6/7=2,8=2,9=2,10=2,19=2,28=1/1;
 99/9=1/99;
 ---------------------------------------
 from http://6ring.bio.nrc.ca/suppl.html
 ---------------------------------------
 Z-Matrix taken from the checkpoint file:
 /home/hmayes/gaussian/oxane/chks/2H1pm6.chk
 Charge =  0 Multiplicity = 1
 C,0,1.323,0.021,0.276
 C,0,0.68,1.135,-0.276
 C,0,-0.662,1.211,0.117
 C,0,-1.378,0.01,0.059
 C,0,-0.681,-1.198,-0.059
 O,0,0.718,-1.179,-0.117
 H,0,-1.9727,-0.0524,0.9775
 H,0,-2.0477,0.0785,-0.8059
 H,0,-0.9569,-1.8121,0.8058
 H,0,-1.0326,-1.6816,-0.9775
 H,0,1.2853,0.0955,1.3688
 H,0,2.3681,0.0156,-0.054
 H,0,1.1979,2.0428,0.0541
 H,0,0.7258,1.0652,-1.3688
 H,0,-1.1639,1.9347,-0.5354
 H,0,-0.6904,1.5709,1.1518
 Recover connectivity data from disk.

 GradGradGradGradGradGradGradGradGradGradGradGradGradGradGradGradGradGrad
 Berny optimization.
 Initialization pass.
                           ----------------------------
                           !    Initial Parameters    !
                           ! (Angstroms and Degrees)  !
 --------------------------                            --------------------------
 ! Name  Definition              Value          Derivative Info.                !
 --------------------------------------------------------------------------------
 ! R1    R(1,2)                  1.3997         estimate D2E/DX2                !
 ! R2    R(1,6)                  1.4002         estimate D2E/DX2                !
 ! R3    R(1,11)                 1.096          estimate D2E/DX2                !
 ! R4    R(1,12)                 1.096          estimate D2E/DX2                !
 ! R5    R(2,3)                  1.4004         estimate D2E/DX2                !
 ! R6    R(2,13)                 1.096          estimate D2E/DX2                !
 ! R7    R(2,14)                 1.096          estimate D2E/DX2                !
 ! R8    R(3,4)                  1.3994         estimate D2E/DX2                !
 ! R9    R(3,15)                 1.096          estimate D2E/DX2                !
 ! R10   R(3,16)                 1.096          estimate D2E/DX2                !
 ! R11   R(4,5)                  1.3996         estimate D2E/DX2                !
 ! R12   R(4,7)                  1.096          estimate D2E/DX2                !
 ! R13   R(4,8)                  1.096          estimate D2E/DX2                !
 ! R14   R(5,6)                  1.4003         estimate D2E/DX2                !
 ! R15   R(5,9)                  1.096          estimate D2E/DX2                !
 ! R16   R(5,10)                 1.096          estimate D2E/DX2                !
 ! A1    A(2,1,6)              111.8957         estimate D2E/DX2                !
 ! A2    A(2,1,11)             108.864          estimate D2E/DX2                !
 ! A3    A(2,1,12)             108.8587         estimate D2E/DX2                !
 ! A4    A(6,1,11)             108.8601         estimate D2E/DX2                !
 ! A5    A(6,1,12)             108.8624         estimate D2E/DX2                !
 ! A6    A(11,1,12)            109.473          estimate D2E/DX2                !
 ! A7    A(1,2,3)              111.8847         estimate D2E/DX2                !
 ! A8    A(1,2,13)             108.866          estimate D2E/DX2                !
 ! A9    A(1,2,14)             108.8651         estimate D2E/DX2                !
 ! A10   A(3,2,13)             108.8651         estimate D2E/DX2                !
 ! A11   A(3,2,14)             108.8636         estimate D2E/DX2                !
 ! A12   A(13,2,14)            109.4695         estimate D2E/DX2                !
 ! A13   A(2,3,4)              115.5999         estimate D2E/DX2                !
 ! A14   A(2,3,15)             107.9155         estimate D2E/DX2                !
 ! A15   A(2,3,16)             107.9159         estimate D2E/DX2                !
 ! A16   A(4,3,15)             107.921          estimate D2E/DX2                !
 ! A17   A(4,3,16)             107.9204         estimate D2E/DX2                !
 ! A18   A(15,3,16)            109.4706         estimate D2E/DX2                !
 ! A19   A(3,4,5)              119.3014         estimate D2E/DX2                !
 ! A20   A(3,4,7)              106.9626         estimate D2E/DX2                !
 ! A21   A(3,4,8)              106.9594         estimate D2E/DX2                !
 ! A22   A(5,4,7)              106.9614         estimate D2E/DX2                !
 ! A23   A(5,4,8)              106.9596         estimate D2E/DX2                !
 ! A24   A(7,4,8)              109.4716         estimate D2E/DX2                !
 ! A25   A(4,5,6)              119.2941         estimate D2E/DX2                !
 ! A26   A(4,5,9)              106.961          estimate D2E/DX2                !
 ! A27   A(4,5,10)             106.9618         estimate D2E/DX2                !
 ! A28   A(6,5,9)              106.9652         estimate D2E/DX2                !
 ! A29   A(6,5,10)             106.9648         estimate D2E/DX2                !
 ! A30   A(9,5,10)             109.4691         estimate D2E/DX2                !
 ! A31   A(1,6,5)              115.5744         estimate D2E/DX2                !
 ! D1    D(6,1,2,3)             60.2081         estimate D2E/DX2                !
 ! D2    D(6,1,2,13)          -179.4275         estimate D2E/DX2                !
 ! D3    D(6,1,2,14)           -60.1537         estimate D2E/DX2                !
 ! D4    D(11,1,2,3)           -60.1556         estimate D2E/DX2                !
 ! D5    D(11,1,2,13)           60.2088         estimate D2E/DX2                !
 ! D6    D(11,1,2,14)          179.4826         estimate D2E/DX2                !
 ! D7    D(12,1,2,3)          -179.4288         estimate D2E/DX2                !
 ! D8    D(12,1,2,13)          -59.0645         estimate D2E/DX2                !
 ! D9    D(12,1,2,14)           60.2094         estimate D2E/DX2                !
 ! D10   D(2,1,6,5)            -44.905          estimate D2E/DX2                !
 ! D11   D(11,1,6,5)            75.4609         estimate D2E/DX2                !
 ! D12   D(12,1,6,5)          -165.266          estimate D2E/DX2                !
 ! D13   D(1,2,3,4)            -44.9062         estimate D2E/DX2                !
 ! D14   D(1,2,3,15)          -165.8022         estimate D2E/DX2                !
 ! D15   D(1,2,3,16)            75.9894         estimate D2E/DX2                !
 ! D16   D(13,2,3,4)          -165.271          estimate D2E/DX2                !
 ! D17   D(13,2,3,15)           73.8329         estimate D2E/DX2                !
 ! D18   D(13,2,3,16)          -44.3755         estimate D2E/DX2                !
 ! D19   D(14,2,3,4)            75.4565         estimate D2E/DX2                !
 ! D20   D(14,2,3,15)          -45.4396         estimate D2E/DX2                !
 ! D21   D(14,2,3,16)         -163.648          estimate D2E/DX2                !
 ! D22   D(2,3,4,5)             15.1349         estimate D2E/DX2                !
 ! D23   D(2,3,4,7)            136.5289         estimate D2E/DX2                !
 ! D24   D(2,3,4,8)           -106.254          estimate D2E/DX2                !
 ! D25   D(15,3,4,5)           136.028          estimate D2E/DX2                !
 ! D26   D(15,3,4,7)          -102.5779         estimate D2E/DX2                !
 ! D27   D(15,3,4,8)            14.6391         estimate D2E/DX2                !
 ! D28   D(16,3,4,5)          -105.7582         estimate D2E/DX2                !
 ! D29   D(16,3,4,7)            15.6359         estimate D2E/DX2                !
 ! D30   D(16,3,4,8)           132.8529         estimate D2E/DX2                !
 ! D31   D(3,4,5,6)             -0.0233         estimate D2E/DX2                !
 ! D32   D(3,4,5,9)            121.3694         estimate D2E/DX2                !
 ! D33   D(3,4,5,10)          -121.4161         estimate D2E/DX2                !
 ! D34   D(7,4,5,6)           -121.4179         estimate D2E/DX2                !
 ! D35   D(7,4,5,9)             -0.0252         estimate D2E/DX2                !
 ! D36   D(7,4,5,10)           117.1893         estimate D2E/DX2                !
 ! D37   D(8,4,5,6)            121.3656         estimate D2E/DX2                !
 ! D38   D(8,4,5,9)           -117.2417         estimate D2E/DX2                !
 ! D39   D(8,4,5,10)            -0.0272         estimate D2E/DX2                !
 ! D40   D(4,5,6,1)             15.1313         estimate D2E/DX2                !
 ! D41   D(9,5,6,1)           -106.2593         estimate D2E/DX2                !
 ! D42   D(10,5,6,1)           136.5226         estimate D2E/DX2                !
 --------------------------------------------------------------------------------
 Trust Radius=3.00D-01 FncErr=1.00D-07 GrdErr=1.00D-07
 Number of steps in this run=     99 maximum allowed number of steps=    100.
 GradGradGradGradGradGradGradGradGradGradGradGradGradGradGradGradGradGrad

                          Input orientation:                          
 ---------------------------------------------------------------------
 Center     Atomic      Atomic             Coordinates (Angstroms)
 Number     Number       Type             X           Y           Z
 ---------------------------------------------------------------------
      1          6           0        1.323000    0.021000    0.276000
      2          6           0        0.680000    1.135000   -0.276000
      3          6           0       -0.662000    1.211000    0.117000
      4          6           0       -1.378000    0.010000    0.059000
      5          6           0       -0.681000   -1.198000   -0.059000
      6          8           0        0.718000   -1.179000   -0.117000
      7          1           0       -1.972700   -0.052400    0.977500
      8          1           0       -2.047700    0.078500   -0.805900
      9          1           0       -0.956900   -1.812100    0.805800
     10          1           0       -1.032600   -1.681600   -0.977500
     11          1           0        1.285300    0.095500    1.368800
     12          1           0        2.368100    0.015600   -0.054000
     13          1           0        1.197900    2.042800    0.054100
     14          1           0        0.725800    1.065200   -1.368800
     15          1           0       -1.163900    1.934700   -0.535400
     16          1           0       -0.690400    1.570900    1.151800
 ---------------------------------------------------------------------
                    Distance matrix (angstroms):
                    1          2          3          4          5
     1  C    0.000000
     2  C    1.399696   0.000000
     3  C    2.319829   1.400425   0.000000
     4  C    2.709725   2.369222   1.399436   0.000000
     5  C    2.369431   2.709668   2.415495   1.399642   0.000000
     6  O    1.400169   2.319767   2.769703   2.416177   1.400331
     7  H    3.370331   3.165122   2.013597   1.095995   2.013758
     8  H    3.540541   2.972765   2.013570   1.096012   2.013748
     9  H    2.973027   3.540499   3.114570   2.013724   1.095956
    10  H    3.165274   3.370213   3.114869   2.013739   1.095962
    11  H    1.095985   2.037723   2.569693   2.969184   2.752833
    12  H    1.095976   2.037651   3.261860   3.747808   3.281747
    13  H    2.037784   1.096033   2.038400   3.281396   3.747778
    14  H    2.037736   1.095984   2.038344   2.752823   2.969299
    15  H    3.241186   2.026518   1.096025   2.025739   3.205302
    16  H    2.687563   2.026479   1.095968   2.025689   3.022074
                    6          7          8          9         10
     6  O    0.000000
     7  H    3.115610   0.000000
     8  H    3.115283   1.789770   0.000000
     9  H    2.014365   2.039087   2.713262   0.000000
    10  H    2.014365   2.712951   2.039075   1.789670   0.000000
    11  H    2.038083   3.284746   3.979761   2.997227   3.746447
    12  H    2.038104   4.462192   4.479799   3.890420   3.911279
    13  H    3.261836   3.910912   3.889986   4.479785   4.462117
    14  H    2.569727   3.746472   2.997121   3.979852   3.284813
    15  H    3.662203   2.625184   2.073584   3.984994   3.645589
    16  H    3.339969   2.076000   2.811069   3.411074   3.902535
                   11         12         13         14         15
    11  H    0.000000
    12  H    1.789748   0.000000
    13  H    2.351181   2.343202   0.000000
    14  H    2.957670   2.351065   1.789755   0.000000
    15  H    3.606552   4.048421   2.436657   2.240882   0.000000
    16  H    2.475335   3.636940   2.234572   2.935094   1.789748
                   16
    16  H    0.000000
 Stoichiometry    C5H10O
 Framework group  C1[X(C5H10O)]
 Deg. of freedom    42
 Full point group                 C1      NOp   1
 Largest Abelian subgroup         C1      NOp   1
 Largest concise Abelian subgroup C1      NOp   1
                         Standard orientation:                         
 ---------------------------------------------------------------------
 Center     Atomic      Atomic             Coordinates (Angstroms)
 Number     Number       Type             X           Y           Z
 ---------------------------------------------------------------------
      1          6           0        1.134904   -0.715737    0.262906
      2          6           0        1.185529    0.568965   -0.290380
      3          6           0        0.094781    1.352013    0.107480
      4          6           0       -1.153262    0.720994    0.056253
      5          6           0       -1.211976   -0.672546   -0.060342
      6          8           0       -0.020539   -1.405611   -0.123744
      7          1           0       -1.684325    0.987445    0.977220
      8          1           0       -1.686541    1.136735   -0.806311
      9          1           0       -1.769450   -1.042788    0.807565
     10          1           0       -1.772470   -0.893460   -0.975862
     11          1           0        1.148443   -0.631759    1.355585
     12          1           0        2.013017   -1.280138   -0.071060
     13          1           0        2.110645    1.058639    0.034686
     14          1           0        1.181348    0.484619   -1.383106
     15          1           0        0.055096    2.231447   -0.545430
     16          1           0        0.268691    1.672009    1.141165
 ---------------------------------------------------------------------
 Rotational constants (GHZ):      5.0345690      4.9810555      2.8079926
 Standard basis: VSTO-6G (5D, 7F)
 There are    34 symmetry adapted basis functions of A   symmetry.
 Integral buffers will be    131072 words long.
 Regular integral format.
 Two-electron integral symmetry is turned off.
    34 basis functions,   204 primitive gaussians,    34 cartesian basis functions
    18 alpha electrons       18 beta electrons
       nuclear repulsion energy       170.7354609586 Hartrees.
 Do NDO integrals.
 One-electron integrals computed using PRISM.
 NBasis=    34 RedAO= F  NBF=    34
 NBsUse=    34 1.00D-04 NBFU=    34
 Simple Huckel Guess.
 Initial guess orbital symmetries:
       Occupied  (A) (A) (A) (A) (A) (A) (A) (A) (A) (A) (A) (A)
                 (A) (A) (A) (A) (A) (A)
       Virtual   (A) (A) (A) (A) (A) (A) (A) (A) (A) (A) (A) (A)
                 (A) (A) (A) (A)
 The electronic state of the initial guess is 1-A.
 Requested convergence on RMS density matrix=1.00D-08 within 128 cycles.
 Requested convergence on MAX density matrix=1.00D-06.
 Requested convergence on             energy=1.00D-06.
 No special actions if energy rises.
 Overlap will be assumed to be unity.
 Keep J ints in memory in canonical form, NReq=883512.
 SCF Done:  E(RPM6) = -0.567935183062E-02 A.U. after   14 cycles
             Convg  =    0.4586D-08             -V/T =  0.9997

 **********************************************************************

            Population analysis using the SCF density.

 **********************************************************************

 Orbital symmetries:
       Occupied  (A) (A) (A) (A) (A) (A) (A) (A) (A) (A) (A) (A)
                 (A) (A) (A) (A) (A) (A)
       Virtual   (A) (A) (A) (A) (A) (A) (A) (A) (A) (A) (A) (A)
                 (A) (A) (A) (A)
 The electronic state is 1-A.
 Alpha  occ. eigenvalues --   -1.19353  -1.05868  -1.04415  -0.88367  -0.84656
 Alpha  occ. eigenvalues --   -0.70699  -0.64236  -0.62329  -0.60851  -0.55822
 Alpha  occ. eigenvalues --   -0.55585  -0.49470  -0.49257  -0.44656  -0.44283
 Alpha  occ. eigenvalues --   -0.41170  -0.40214  -0.34359
 Alpha virt. eigenvalues --    0.09367   0.14533   0.15399   0.16852   0.17893
 Alpha virt. eigenvalues --    0.18200   0.19002   0.20351   0.21027   0.21212
 Alpha virt. eigenvalues --    0.21999   0.22644   0.22843   0.23364   0.24111
 Alpha virt. eigenvalues --    0.24575
          Condensed to atoms (all electrons):
              1          2          3          4          5          6
     1  C    3.973413   0.000000   0.000000   0.000000   0.000000   0.000000
     2  C    0.000000   4.364016   0.000000   0.000000   0.000000   0.000000
     3  C    0.000000   0.000000   4.230612   0.000000   0.000000   0.000000
     4  C    0.000000   0.000000   0.000000   4.368971   0.000000   0.000000
     5  C    0.000000   0.000000   0.000000   0.000000   3.974349   0.000000
     6  O    0.000000   0.000000   0.000000   0.000000   0.000000   6.456636
     7  H    0.000000   0.000000   0.000000   0.000000   0.000000   0.000000
     8  H    0.000000   0.000000   0.000000   0.000000   0.000000   0.000000
     9  H    0.000000   0.000000   0.000000   0.000000   0.000000   0.000000
    10  H    0.000000   0.000000   0.000000   0.000000   0.000000   0.000000
    11  H    0.000000   0.000000   0.000000   0.000000   0.000000   0.000000
    12  H    0.000000   0.000000   0.000000   0.000000   0.000000   0.000000
    13  H    0.000000   0.000000   0.000000   0.000000   0.000000   0.000000
    14  H    0.000000   0.000000   0.000000   0.000000   0.000000   0.000000
    15  H    0.000000   0.000000   0.000000   0.000000   0.000000   0.000000
    16  H    0.000000   0.000000   0.000000   0.000000   0.000000   0.000000
              7          8          9         10         11         12
     1  C    0.000000   0.000000   0.000000   0.000000   0.000000   0.000000
     2  C    0.000000   0.000000   0.000000   0.000000   0.000000   0.000000
     3  C    0.000000   0.000000   0.000000   0.000000   0.000000   0.000000
     4  C    0.000000   0.000000   0.000000   0.000000   0.000000   0.000000
     5  C    0.000000   0.000000   0.000000   0.000000   0.000000   0.000000
     6  O    0.000000   0.000000   0.000000   0.000000   0.000000   0.000000
     7  H    0.846223   0.000000   0.000000   0.000000   0.000000   0.000000
     8  H    0.000000   0.845494   0.000000   0.000000   0.000000   0.000000
     9  H    0.000000   0.000000   0.890250   0.000000   0.000000   0.000000
    10  H    0.000000   0.000000   0.000000   0.876306   0.000000   0.000000
    11  H    0.000000   0.000000   0.000000   0.000000   0.892996   0.000000
    12  H    0.000000   0.000000   0.000000   0.000000   0.000000   0.869475
    13  H    0.000000   0.000000   0.000000   0.000000   0.000000   0.000000
    14  H    0.000000   0.000000   0.000000   0.000000   0.000000   0.000000
    15  H    0.000000   0.000000   0.000000   0.000000   0.000000   0.000000
    16  H    0.000000   0.000000   0.000000   0.000000   0.000000   0.000000
             13         14         15         16
     1  C    0.000000   0.000000   0.000000   0.000000
     2  C    0.000000   0.000000   0.000000   0.000000
     3  C    0.000000   0.000000   0.000000   0.000000
     4  C    0.000000   0.000000   0.000000   0.000000
     5  C    0.000000   0.000000   0.000000   0.000000
     6  O    0.000000   0.000000   0.000000   0.000000
     7  H    0.000000   0.000000   0.000000   0.000000
     8  H    0.000000   0.000000   0.000000   0.000000
     9  H    0.000000   0.000000   0.000000   0.000000
    10  H    0.000000   0.000000   0.000000   0.000000
    11  H    0.000000   0.000000   0.000000   0.000000
    12  H    0.000000   0.000000   0.000000   0.000000
    13  H    0.849077   0.000000   0.000000   0.000000
    14  H    0.000000   0.833330   0.000000   0.000000
    15  H    0.000000   0.000000   0.863844   0.000000
    16  H    0.000000   0.000000   0.000000   0.865009
 Mulliken atomic charges:
              1
     1  C    0.026587
     2  C   -0.364016
     3  C   -0.230612
     4  C   -0.368971
     5  C    0.025651
     6  O   -0.456636
     7  H    0.153777
     8  H    0.154506
     9  H    0.109750
    10  H    0.123694
    11  H    0.107004
    12  H    0.130525
    13  H    0.150923
    14  H    0.166670
    15  H    0.136156
    16  H    0.134991
 Sum of Mulliken atomic charges =   0.00000
 Mulliken charges with hydrogens summed into heavy atoms:
              1
     1  C    0.264116
     2  C   -0.046422
     3  C    0.040535
     4  C   -0.060687
     5  C    0.259095
     6  O   -0.456636
 Sum of Mulliken charges with hydrogens summed into heavy atoms =   0.00000
 Charge=              0.0000 electrons
 Dipole moment (field-independent basis, Debye):
    X=             -0.0506    Y=              2.2771    Z=              0.4352  Tot=              2.3189
 N-N= 1.707354609586D+02 E-N=-2.958579602808D+02  KE=-2.211252549434D+01
 Calling FoFJK, ICntrl=      2127 FMM=F ISym2X=0 I1Cent= 0 IOpClX= 0 NMat=1 NMatS=1 NMatT=0.
 ***** Axes restored to original set *****
 -------------------------------------------------------------------
 Center     Atomic                   Forces (Hartrees/Bohr)
 Number     Number              X              Y              Z
 -------------------------------------------------------------------
      1        6           0.064126686   -0.054381528    0.052905475
      2        6           0.056637374    0.081136381   -0.072596571
      3        6          -0.047148798    0.105060196    0.033631263
      4        6          -0.111299283    0.001763532    0.003085332
      5        6           0.021935408   -0.096514421   -0.003876614
      6        8           0.027812875   -0.036953334   -0.015357948
      7        1          -0.021826928   -0.000356957    0.011199736
      8        1          -0.022069355    0.000404442   -0.010102016
      9        1           0.004961684   -0.018722494    0.008086224
     10        1           0.008209348   -0.016936604   -0.010908117
     11        1           0.006389947   -0.008499316    0.016242592
     12        1           0.011080639   -0.016876126   -0.001041397
     13        1           0.011585012    0.018094945   -0.004933289
     14        1           0.006583760    0.005983437   -0.020432540
     15        1          -0.011179499    0.020604458   -0.002421946
     16        1          -0.005798868    0.016193389    0.016519817
 -------------------------------------------------------------------
 Cartesian Forces:  Max     0.111299283 RMS     0.037888307

 GradGradGradGradGradGradGradGradGradGradGradGradGradGradGradGradGradGrad
 Berny optimization.
 Internal  Forces:  Max     0.154858755 RMS     0.033443406
 Search for a local minimum.
 Step number   1 out of a maximum of   99
 All quantities printed in internal units (Hartrees-Bohrs-Radians)
 Mixed Optimization -- RFO/linear search
 Second derivative matrix not updated -- first step.
 ITU=  0
     Eigenvalues ---    0.01948   0.02109   0.02326   0.03760   0.03953
     Eigenvalues ---    0.04816   0.05272   0.05915   0.06092   0.06246
     Eigenvalues ---    0.06616   0.07131   0.07336   0.08737   0.08973
     Eigenvalues ---    0.09504   0.10043   0.10641   0.11647   0.11990
     Eigenvalues ---    0.12384   0.12906   0.13808   0.19358   0.19573
     Eigenvalues ---    0.22526   0.34125   0.34126   0.34127   0.34129
     Eigenvalues ---    0.34130   0.34130   0.34131   0.34132   0.34133
     Eigenvalues ---    0.34133   0.40882   0.41842   0.44072   0.45565
     Eigenvalues ---    0.45649   0.45677
 RFO step:  Lambda=-1.66626057D-01 EMin= 1.94823158D-02
 Linear search not attempted -- first point.
 Maximum step size (   0.300) exceeded in Quadratic search.
    -- Step size scaled by   0.570
 Iteration  1 RMS(Cart)=  0.05897903 RMS(Int)=  0.00048759
 Iteration  2 RMS(Cart)=  0.00053880 RMS(Int)=  0.00022172
 Iteration  3 RMS(Cart)=  0.00000017 RMS(Int)=  0.00022172
 Variable       Old X    -DE/DX   Delta X   Delta X   Delta X     New X
                                 (Linear)    (Quad)   (Total)
    R1        2.64504   0.14362   0.00000   0.13198   0.13199   2.77703
    R2        2.64594   0.04421   0.00000   0.03691   0.03654   2.68247
    R3        2.07111   0.01540   0.00000   0.01728   0.01728   2.08839
    R4        2.07109   0.01096   0.00000   0.01230   0.01230   2.08340
    R5        2.64642   0.14494   0.00000   0.13491   0.13515   2.78157
    R6        2.07120   0.01898   0.00000   0.02129   0.02129   2.09250
    R7        2.07111   0.02027   0.00000   0.02274   0.02274   2.09385
    R8        2.64455   0.14916   0.00000   0.13956   0.13991   2.78446
    R9        2.07119   0.02017   0.00000   0.02263   0.02263   2.09382
   R10        2.07108   0.02107   0.00000   0.02364   0.02364   2.09471
   R11        2.64494   0.15486   0.00000   0.14195   0.14199   2.78693
   R12        2.07113   0.02125   0.00000   0.02384   0.02384   2.09497
   R13        2.07116   0.02148   0.00000   0.02411   0.02411   2.09527
   R14        2.64624   0.04652   0.00000   0.03969   0.03939   2.68563
   R15        2.07106   0.01562   0.00000   0.01753   0.01753   2.08858
   R16        2.07107   0.01398   0.00000   0.01569   0.01569   2.08676
    A1        1.95295   0.00559   0.00000   0.00669   0.00649   1.95944
    A2        1.90003   0.01043   0.00000   0.02147   0.02134   1.92138
    A3        1.89994   0.01099   0.00000   0.02397   0.02400   1.92394
    A4        1.89997  -0.00645   0.00000  -0.01194  -0.01209   1.88788
    A5        1.90001  -0.01472   0.00000  -0.02835  -0.02831   1.87170
    A6        1.91066  -0.00611   0.00000  -0.01234  -0.01293   1.89773
    A7        1.95276  -0.00468   0.00000  -0.00498  -0.00480   1.94795
    A8        1.90007   0.00565   0.00000   0.00798   0.00780   1.90787
    A9        1.90005  -0.00111   0.00000  -0.00056  -0.00049   1.89957
   A10        1.90005   0.00343   0.00000   0.00794   0.00794   1.90799
   A11        1.90003   0.00281   0.00000   0.00324   0.00313   1.90316
   A12        1.91060  -0.00627   0.00000  -0.01403  -0.01400   1.89661
   A13        2.01760  -0.02017   0.00000  -0.01908  -0.01836   1.99924
   A14        1.88348   0.00438   0.00000   0.00640   0.00634   1.88982
   A15        1.88349   0.00972   0.00000   0.01019   0.00995   1.89343
   A16        1.88358   0.01030   0.00000   0.01165   0.01137   1.89495
   A17        1.88357   0.00472   0.00000   0.00694   0.00691   1.89047
   A18        1.91062  -0.00918   0.00000  -0.01705  -0.01698   1.89364
   A19        2.08220  -0.01632   0.00000  -0.01595  -0.01542   2.06678
   A20        1.86685   0.00741   0.00000   0.00832   0.00816   1.87501
   A21        1.86679   0.00490   0.00000   0.00755   0.00748   1.87428
   A22        1.86683   0.00388   0.00000   0.00644   0.00641   1.87324
   A23        1.86680   0.00814   0.00000   0.00882   0.00863   1.87542
   A24        1.91064  -0.00849   0.00000  -0.01682  -0.01677   1.89387
   A25        2.08208   0.00889   0.00000   0.00943   0.00918   2.09126
   A26        1.86682   0.01073   0.00000   0.02383   0.02379   1.89061
   A27        1.86684   0.01249   0.00000   0.02585   0.02582   1.89266
   A28        1.86689  -0.01296   0.00000  -0.02090  -0.02095   1.84594
   A29        1.86689  -0.01403   0.00000  -0.02713  -0.02723   1.83966
   A30        1.91060  -0.00637   0.00000  -0.01329  -0.01400   1.89659
   A31        2.01715   0.02704   0.00000   0.02465   0.02369   2.04085
    D1        1.05083   0.00132   0.00000   0.00070   0.00063   1.05146
    D2       -3.13160   0.00641   0.00000   0.01279   0.01272  -3.11888
    D3       -1.04988   0.00150   0.00000   0.00017   0.00007  -1.04981
    D4       -1.04991  -0.00110   0.00000  -0.00291  -0.00284  -1.05275
    D5        1.05084   0.00399   0.00000   0.00918   0.00926   1.06010
    D6        3.13256  -0.00092   0.00000  -0.00344  -0.00340   3.12917
    D7       -3.13162  -0.00622   0.00000  -0.01452  -0.01462   3.13694
    D8       -1.03087  -0.00112   0.00000  -0.00243  -0.00253  -1.03340
    D9        1.05085  -0.00603   0.00000  -0.01505  -0.01518   1.03567
   D10       -0.78374  -0.00383   0.00000  -0.00577  -0.00566  -0.78940
   D11        1.31704   0.00843   0.00000   0.01732   0.01702   1.33406
   D12       -2.88444  -0.01129   0.00000  -0.02106  -0.02071  -2.90514
   D13       -0.78376   0.00602   0.00000   0.00790   0.00767  -0.77609
   D14       -2.89379   0.00281   0.00000   0.00069   0.00050  -2.89329
   D15        1.32626   0.00604   0.00000   0.01186   0.01176   1.33802
   D16       -2.88452  -0.00037   0.00000  -0.00421  -0.00434  -2.88886
   D17        1.28863  -0.00358   0.00000  -0.01142  -0.01151   1.27712
   D18       -0.77450  -0.00035   0.00000  -0.00024  -0.00025  -0.77475
   D19        1.31696   0.00355   0.00000   0.00621   0.00611   1.32308
   D20       -0.79307   0.00034   0.00000  -0.00100  -0.00106  -0.79413
   D21       -2.85620   0.00357   0.00000   0.01018   0.01020  -2.84600
   D22        0.26415   0.00438   0.00000   0.00421   0.00409   0.26824
   D23        2.38288   0.00442   0.00000   0.00871   0.00869   2.39157
   D24       -1.85448   0.00073   0.00000  -0.00284  -0.00291  -1.85740
   D25        2.37414   0.00439   0.00000   0.00858   0.00850   2.38264
   D26       -1.79032   0.00444   0.00000   0.01308   0.01310  -1.77722
   D27        0.25550   0.00075   0.00000   0.00153   0.00150   0.25700
   D28       -1.84583   0.00166   0.00000  -0.00152  -0.00167  -1.84750
   D29        0.27290   0.00170   0.00000   0.00299   0.00294   0.27583
   D30        2.31872  -0.00199   0.00000  -0.00857  -0.00867   2.31005
   D31       -0.00041   0.00109   0.00000  -0.00152  -0.00158  -0.00198
   D32        2.11830  -0.00105   0.00000  -0.00289  -0.00298   2.11532
   D33       -2.11911   0.00318   0.00000   0.00653   0.00663  -2.11248
   D34       -2.11914  -0.00071   0.00000  -0.00696  -0.00707  -2.12621
   D35       -0.00044  -0.00285   0.00000  -0.00834  -0.00847  -0.00891
   D36        2.04534   0.00138   0.00000   0.00109   0.00114   2.04647
   D37        2.11823   0.00312   0.00000   0.00490   0.00485   2.12307
   D38       -2.04625   0.00098   0.00000   0.00353   0.00344  -2.04281
   D39       -0.00047   0.00521   0.00000   0.01295   0.01305   0.01258
   D40        0.26409   0.00064   0.00000   0.00369   0.00372   0.26781
   D41       -1.85457  -0.00906   0.00000  -0.01729  -0.01689  -1.87146
   D42        2.38277   0.01181   0.00000   0.02213   0.02168   2.40445
         Item               Value     Threshold  Converged?
 Maximum Force            0.154859     0.000450     NO 
 RMS     Force            0.033443     0.000300     NO 
 Maximum Displacement     0.158991     0.001800     NO 
 RMS     Displacement     0.058922     0.001200     NO 
 Predicted change in Energy=-7.567266D-02
 GradGradGradGradGradGradGradGradGradGradGradGradGradGradGradGradGradGrad

                          Input orientation:                          
 ---------------------------------------------------------------------
 Center     Atomic      Atomic             Coordinates (Angstroms)
 Number     Number       Type             X           Y           Z
 ---------------------------------------------------------------------
      1          6           0        1.365480   -0.000019    0.284666
      2          6           0        0.710848    1.182153   -0.292812
      3          6           0       -0.697446    1.279808    0.124070
      4          6           0       -1.443741    0.010841    0.061652
      5          6           0       -0.681918   -1.246294   -0.057588
      6          8           0        0.737758   -1.209909   -0.111723
      7          1           0       -2.055813   -0.060121    0.983256
      8          1           0       -2.126006    0.070234   -0.810331
      9          1           0       -0.933116   -1.888105    0.806422
     10          1           0       -0.997686   -1.759679   -0.982858
     11          1           0        1.342605    0.054571    1.388208
     12          1           0        2.416013   -0.053537   -0.045471
     13          1           0        1.251845    2.093562    0.027764
     14          1           0        0.756821    1.112614   -1.397689
     15          1           0       -1.202685    2.018835   -0.528797
     16          1           0       -0.730060    1.652147    1.167630
 ---------------------------------------------------------------------
                    Distance matrix (angstroms):
                    1          2          3          4          5
     1  C    0.000000
     2  C    1.469542   0.000000
     3  C    2.432984   1.471943   0.000000
     4  C    2.818081   2.477876   1.473475   0.000000
     5  C    2.421194   2.809356   2.532672   1.474782   0.000000
     6  O    1.419505   2.399057   2.883418   2.505839   1.421174
     7  H    3.492404   3.290289   2.092551   1.108612   2.092355
     8  H    3.659840   3.090619   2.092118   1.108768   2.094101
     9  H    3.020041   3.652042   3.249125   2.102717   1.105231
    10  H    3.207425   3.471257   3.248678   2.103499   1.104264
    11  H    1.105128   2.120468   2.694635   3.086323   2.807359
    12  H    1.102485   2.120305   3.391191   3.861777   3.319638
    13  H    2.112343   1.107301   2.114523   3.406620   3.860229
    14  H    2.106831   1.108018   2.111539   2.861128   3.070877
    15  H    3.366447   2.101746   1.108000   2.106840   3.339806
    16  H    2.810795   2.104757   1.108475   2.103904   3.147131
                    6          7          8          9         10
     6  O    0.000000
     7  H    3.213258   0.000000
     8  H    3.213715   1.799687   0.000000
     9  H    2.023552   2.152497   2.805703   0.000000
    10  H    2.018140   2.806017   2.156722   1.795045   0.000000
    11  H    2.052934   3.424381   4.106711   3.048175   3.793470
    12  H    2.039148   4.588633   4.607631   3.912548   3.929753
    13  H    3.346142   4.061025   4.025685   4.608041   4.574846
    14  H    2.654842   3.867185   3.121256   4.088803   3.391230
    15  H    3.789994   2.708540   2.174587   4.137591   3.811215
    16  H    3.461589   2.173356   2.891962   3.564419   4.041878
                   11         12         13         14         15
    11  H    0.000000
    12  H    1.794248   0.000000
    13  H    2.452862   2.443499   0.000000
    14  H    3.037074   2.437482   1.799785   0.000000
    15  H    3.743226   4.198012   2.517948   2.327203   0.000000
    16  H    2.626185   3.778723   2.328539   3.013765   1.798805
                   16
    16  H    0.000000
 Stoichiometry    C5H10O
 Framework group  C1[X(C5H10O)]
 Deg. of freedom    42
 Full point group                 C1      NOp   1
 Largest Abelian subgroup         C1      NOp   1
 Largest concise Abelian subgroup C1      NOp   1
                         Standard orientation:                         
 ---------------------------------------------------------------------
 Center     Atomic      Atomic             Coordinates (Angstroms)
 Number     Number       Type             X           Y           Z
 ---------------------------------------------------------------------
      1          6           0        1.164005   -0.748328    0.273911
      2          6           0        1.233407    0.602425   -0.300722
      3          6           0        0.089778    1.429090    0.118032
      4          6           0       -1.214649    0.746785    0.054315
      5          6           0       -1.232786   -0.722802   -0.068028
      6          8           0       -0.008579   -1.442483   -0.123817
      7          1           0       -1.771576    1.008251    0.976534
      8          1           0       -1.762422    1.159797   -0.816737
      9          1           0       -1.785269   -1.136548    0.795171
     10          1           0       -1.772362   -0.989622   -0.993805
     11          1           0        1.173575   -0.692229    1.377572
     12          1           0        2.027327   -1.348542   -0.057589
     13          1           0        2.174547    1.089259    0.020779
     14          1           0        1.235537    0.521428   -1.405774
     15          1           0        0.051650    2.324883   -0.532941
     16          1           0        0.259091    1.760159    1.162275
 ---------------------------------------------------------------------
 Rotational constants (GHZ):      4.7483506      4.5942930      2.6073466
 Standard basis: VSTO-6G (5D, 7F)
 There are    34 symmetry adapted basis functions of A   symmetry.
 Integral buffers will be    131072 words long.
 Regular integral format.
 Two-electron integral symmetry is turned off.
    34 basis functions,   204 primitive gaussians,    34 cartesian basis functions
    18 alpha electrons       18 beta electrons
       nuclear repulsion energy       167.2854625900 Hartrees.
 Do NDO integrals.
 One-electron integrals computed using PRISM.
 NBasis=    34 RedAO= F  NBF=    34
 NBsUse=    34 1.00D-04 NBFU=    34
 Initial guess read from the read-write file.
 B after Tr=     0.000000    0.000000    0.000000
         Rot=    1.000000    0.000000    0.000000    0.000000 Ang=   0.00 deg.
 Initial guess orbital symmetries:
       Occupied  (A) (A) (A) (A) (A) (A) (A) (A) (A) (A) (A) (A)
                 (A) (A) (A) (A) (A) (A)
       Virtual   (A) (A) (A) (A) (A) (A) (A) (A) (A) (A) (A) (A)
                 (A) (A) (A) (A)
 Requested convergence on RMS density matrix=1.00D-08 within 128 cycles.
 Requested convergence on MAX density matrix=1.00D-06.
 Requested convergence on             energy=1.00D-06.
 No special actions if energy rises.
 Overlap will be assumed to be unity.
 Keep J ints in memory in canonical form, NReq=883512.
 SCF Done:  E(RPM6) = -0.693045219252E-01 A.U. after   12 cycles
             Convg  =    0.3289D-08             -V/T =  0.9968
 Calling FoFJK, ICntrl=      2127 FMM=F ISym2X=0 I1Cent= 0 IOpClX= 0 NMat=1 NMatS=1 NMatT=0.
 ***** Axes restored to original set *****
 -------------------------------------------------------------------
 Center     Atomic                   Forces (Hartrees/Bohr)
 Number     Number              X              Y              Z
 -------------------------------------------------------------------
      1        6           0.021144070   -0.014621730    0.026082795
      2        6           0.020922654    0.029777194   -0.029049424
      3        6          -0.015940845    0.038706118    0.014113993
      4        6          -0.040707751    0.000740566   -0.000202667
      5        6           0.003086582   -0.033760941    0.002067013
      6        8           0.013361340   -0.013628142   -0.010546407
      7        1          -0.009018837    0.000071191    0.000930730
      8        1          -0.008442677   -0.000638907   -0.000822186
      9        1           0.003849670   -0.007287089    0.002663390
     10        1           0.006956410   -0.006629394   -0.004145381
     11        1           0.002211041   -0.004087651    0.005313647
     12        1           0.001998492   -0.011053013   -0.001836218
     13        1           0.003637098    0.005026965   -0.004395139
     14        1           0.003285482    0.003399154   -0.005823894
     15        1          -0.003689879    0.007244816    0.002235489
     16        1          -0.002652851    0.006740861    0.003414259
 -------------------------------------------------------------------
 Cartesian Forces:  Max     0.040707751 RMS     0.014079797

 GradGradGradGradGradGradGradGradGradGradGradGradGradGradGradGradGradGrad
 Berny optimization.
 Using GEDIIS/GDIIS optimizer.
 Internal  Forces:  Max     0.057111401 RMS     0.012409829
 Search for a local minimum.
 Step number   2 out of a maximum of   99
 All quantities printed in internal units (Hartrees-Bohrs-Radians)
 Mixed Optimization -- RFO/linear search
 Update second derivatives using D2CorX and points    1    2
 DE= -6.36D-02 DEPred=-7.57D-02 R= 8.41D-01
 SS=  1.41D+00  RLast= 3.06D-01 DXNew= 5.0454D-01 9.1757D-01
 Trust test= 8.41D-01 RLast= 3.06D-01 DXMaxT set to 5.05D-01
 ITU=  1  0
 Use linear search instead of GDIIS.
     Eigenvalues ---    0.01944   0.02110   0.02324   0.03757   0.03935
     Eigenvalues ---    0.04838   0.05217   0.05874   0.06087   0.06244
     Eigenvalues ---    0.06619   0.06979   0.07207   0.08701   0.08962
     Eigenvalues ---    0.09386   0.09948   0.10627   0.11880   0.12043
     Eigenvalues ---    0.12678   0.12872   0.13849   0.19312   0.19576
     Eigenvalues ---    0.22480   0.34124   0.34125   0.34127   0.34129
     Eigenvalues ---    0.34130   0.34131   0.34131   0.34131   0.34133
     Eigenvalues ---    0.34533   0.41119   0.42419   0.44196   0.45583
     Eigenvalues ---    0.45676   0.67494
 RFO step:  Lambda=-6.32744085D-03 EMin= 1.94436192D-02
 Quartic linear search produced a step of  0.81529.
 Iteration  1 RMS(Cart)=  0.06338483 RMS(Int)=  0.00221154
 Iteration  2 RMS(Cart)=  0.00208741 RMS(Int)=  0.00104109
 Iteration  3 RMS(Cart)=  0.00000213 RMS(Int)=  0.00104109
 Iteration  4 RMS(Cart)=  0.00000000 RMS(Int)=  0.00104109
 Variable       Old X    -DE/DX   Delta X   Delta X   Delta X     New X
                                 (Linear)    (Quad)   (Total)
    R1        2.77703   0.05285   0.10761  -0.00689   0.10062   2.87765
    R2        2.68247   0.01421   0.02979  -0.01029   0.01889   2.70136
    R3        2.08839   0.00506   0.01409  -0.00283   0.01126   2.09964
    R4        2.08340   0.00299   0.01003  -0.00520   0.00483   2.08822
    R5        2.78157   0.05344   0.11019  -0.00706   0.10341   2.88497
    R6        2.09250   0.00464   0.01736  -0.01179   0.00557   2.09806
    R7        2.09385   0.00573   0.01854  -0.00857   0.00997   2.10383
    R8        2.78446   0.05605   0.11407  -0.00247   0.11219   2.89666
    R9        2.09382   0.00520   0.01845  -0.01115   0.00730   2.10111
   R10        2.09471   0.00556   0.01927  -0.01099   0.00828   2.10300
   R11        2.78693   0.05711   0.11577  -0.00606   0.10988   2.89681
   R12        2.09497   0.00575   0.01944  -0.01034   0.00910   2.10408
   R13        2.09527   0.00581   0.01965  -0.01047   0.00918   2.10445
   R14        2.68563   0.01621   0.03211  -0.00507   0.02664   2.71227
   R15        2.08858   0.00544   0.01429  -0.00127   0.01302   2.10160
   R16        2.08676   0.00457   0.01279  -0.00271   0.01008   2.09684
    A1        1.95944   0.00261   0.00529  -0.00732  -0.00232   1.95712
    A2        1.92138   0.00482   0.01740   0.04236   0.05791   1.97928
    A3        1.92394   0.00635   0.01957   0.04033   0.05770   1.98165
    A4        1.88788  -0.00238  -0.00986   0.00625  -0.00440   1.88348
    A5        1.87170  -0.00972  -0.02308  -0.09398  -0.11603   1.75567
    A6        1.89773  -0.00233  -0.01055   0.00911  -0.00629   1.89144
    A7        1.94795  -0.00262  -0.00392  -0.01620  -0.01968   1.92828
    A8        1.90787   0.00233   0.00636   0.01208   0.01816   1.92603
    A9        1.89957   0.00020  -0.00040   0.01007   0.00987   1.90944
   A10        1.90799   0.00184   0.00647   0.01704   0.02375   1.93174
   A11        1.90316   0.00155   0.00255   0.01265   0.01483   1.91799
   A12        1.89661  -0.00337  -0.01141  -0.03655  -0.04787   1.84874
   A13        1.99924  -0.00699  -0.01497   0.00073  -0.01375   1.98549
   A14        1.88982   0.00177   0.00517   0.01126   0.01634   1.90616
   A15        1.89343   0.00373   0.00811   0.00697   0.01500   1.90844
   A16        1.89495   0.00349   0.00927   0.00358   0.01258   1.90753
   A17        1.89047   0.00234   0.00563   0.01616   0.02190   1.91237
   A18        1.89364  -0.00440  -0.01385  -0.04188  -0.05559   1.83804
   A19        2.06678  -0.00640  -0.01257  -0.00334  -0.01531   2.05148
   A20        1.87501   0.00328   0.00666   0.01015   0.01682   1.89183
   A21        1.87428   0.00232   0.00610   0.01694   0.02281   1.89709
   A22        1.87324   0.00172   0.00522   0.01261   0.01769   1.89092
   A23        1.87542   0.00329   0.00703   0.00564   0.01261   1.88803
   A24        1.89387  -0.00445  -0.01368  -0.04803  -0.06155   1.83231
   A25        2.09126   0.00383   0.00748  -0.00219   0.00510   2.09635
   A26        1.89061   0.00540   0.01940   0.04464   0.06262   1.95323
   A27        1.89266   0.00691   0.02105   0.03880   0.05863   1.95128
   A28        1.84594  -0.00627  -0.01708  -0.01878  -0.03632   1.80962
   A29        1.83966  -0.00820  -0.02220  -0.06645  -0.08817   1.75149
   A30        1.89659  -0.00279  -0.01142   0.00092  -0.01558   1.88101
   A31        2.04085   0.00833   0.01932  -0.01300   0.00386   2.04470
    D1        1.05146   0.00212   0.00051   0.03912   0.03951   1.09097
    D2       -3.11888   0.00431   0.01037   0.05816   0.06869  -3.05019
    D3       -1.04981   0.00170   0.00006   0.02690   0.02705  -1.02276
    D4       -1.05275   0.00006  -0.00231   0.00678   0.00496  -1.04779
    D5        1.06010   0.00225   0.00755   0.02582   0.03414   1.09424
    D6        3.12917  -0.00036  -0.00277  -0.00544  -0.00750   3.12166
    D7        3.13694  -0.00415  -0.01192  -0.05705  -0.07056   3.06638
    D8       -1.03340  -0.00196  -0.00206  -0.03801  -0.04138  -1.07478
    D9        1.03567  -0.00456  -0.01238  -0.06927  -0.08302   0.95265
   D10       -0.78940  -0.00273  -0.00461  -0.05864  -0.06250  -0.85190
   D11        1.33406   0.00337   0.01388  -0.00588   0.00623   1.34030
   D12       -2.90514  -0.00572  -0.01688  -0.04156  -0.05822  -2.96337
   D13       -0.77609   0.00143   0.00626  -0.01372  -0.00785  -0.78393
   D14       -2.89329   0.00030   0.00041  -0.02708  -0.02681  -2.92011
   D15        1.33802   0.00251   0.00959   0.01267   0.02219   1.36021
   D16       -2.88886  -0.00104  -0.00354  -0.02987  -0.03376  -2.92262
   D17        1.27712  -0.00218  -0.00938  -0.04323  -0.05272   1.22440
   D18       -0.77475   0.00004  -0.00020  -0.00348  -0.00373  -0.77848
   D19        1.32308   0.00105   0.00498  -0.00304   0.00163   1.32471
   D20       -0.79413  -0.00009  -0.00087  -0.01640  -0.01733  -0.81146
   D21       -2.84600   0.00213   0.00831   0.02335   0.03167  -2.81433
   D22        0.26824   0.00213   0.00333   0.01207   0.01556   0.28380
   D23        2.39157   0.00265   0.00709   0.03499   0.04231   2.43388
   D24       -1.85740   0.00031  -0.00238  -0.00719  -0.00941  -1.86681
   D25        2.38264   0.00230   0.00693   0.02968   0.03658   2.41922
   D26       -1.77722   0.00282   0.01068   0.05260   0.06333  -1.71389
   D27        0.25700   0.00048   0.00122   0.01042   0.01161   0.26861
   D28       -1.84750   0.00027  -0.00136  -0.00923  -0.01069  -1.85819
   D29        0.27583   0.00079   0.00239   0.01369   0.01606   0.29189
   D30        2.31005  -0.00155  -0.00707  -0.02849  -0.03566   2.27439
   D31       -0.00198   0.00010  -0.00129  -0.02809  -0.02934  -0.03132
   D32        2.11532  -0.00095  -0.00243  -0.01645  -0.01955   2.09576
   D33       -2.11248   0.00251   0.00540   0.03057   0.03718  -2.07531
   D34       -2.12621  -0.00121  -0.00577  -0.04975  -0.05565  -2.18186
   D35       -0.00891  -0.00226  -0.00691  -0.03811  -0.04586  -0.05478
   D36        2.04647   0.00119   0.00093   0.00891   0.01086   2.05734
   D37        2.12307   0.00143   0.00395  -0.00310   0.00080   2.12387
   D38       -2.04281   0.00038   0.00281   0.00853   0.01058  -2.03223
   D39        0.01258   0.00384   0.01064   0.05556   0.06731   0.07989
   D40        0.26781   0.00067   0.00303   0.05031   0.05284   0.32065
   D41       -1.87146  -0.00390  -0.01377   0.00779  -0.00382  -1.87528
   D42        2.40445   0.00559   0.01767   0.04418   0.06025   2.46470
         Item               Value     Threshold  Converged?
 Maximum Force            0.057111     0.000450     NO 
 RMS     Force            0.012410     0.000300     NO 
 Maximum Displacement     0.240174     0.001800     NO 
 RMS     Displacement     0.063070     0.001200     NO 
 Predicted change in Energy=-1.046158D-02
 GradGradGradGradGradGradGradGradGradGradGradGradGradGradGradGradGradGrad

                          Input orientation:                          
 ---------------------------------------------------------------------
 Center     Atomic      Atomic             Coordinates (Angstroms)
 Number     Number       Type             X           Y           Z
 ---------------------------------------------------------------------
      1          6           0        1.380384   -0.007151    0.305627
      2          6           0        0.731652    1.226141   -0.308393
      3          6           0       -0.724999    1.339894    0.134245
      4          6           0       -1.496614    0.017236    0.064973
      5          6           0       -0.679632   -1.274873   -0.048423
      6          8           0        0.752418   -1.216949   -0.125086
      7          1           0       -2.147282   -0.057508    0.965402
      8          1           0       -2.201000    0.059604   -0.796544
      9          1           0       -0.869819   -1.962377    0.804793
     10          1           0       -0.907323   -1.825571   -0.984423
     11          1           0        1.380459    0.001104    1.416680
     12          1           0        2.415060   -0.180632   -0.041451
     13          1           0        1.298397    2.139464   -0.030384
     14          1           0        0.786138    1.158859   -1.418318
     15          1           0       -1.240114    2.099045   -0.493911
     16          1           0       -0.764827    1.740812    1.171613
 ---------------------------------------------------------------------
                    Distance matrix (angstroms):
                    1          2          3          4          5
     1  C    0.000000
     2  C    1.522788   0.000000
     3  C    2.505302   1.526663   0.000000
     4  C    2.887149   2.562426   1.532845   0.000000
     5  C    2.444614   2.883467   2.621533   1.532927   0.000000
     6  O    1.429499   2.450045   2.964365   2.572447   1.435270
     7  H    3.589187   3.399789   2.160195   1.113430   2.159587
     8  H    3.747739   3.193673   2.164276   1.113628   2.157563
     9  H    3.022498   3.737719   3.372774   2.204331   1.112120
    10  H    3.194446   3.529335   3.362265   2.201008   1.109598
    11  H    1.111084   2.213039   2.805343   3.178824   2.831717
    12  H    1.105039   2.210006   3.493256   3.918121   3.282458
    13  H    2.174301   1.110247   2.181867   3.510703   3.945963
    14  H    2.164416   1.113296   2.174111   2.952019   3.154068
    15  H    3.455768   2.164310   1.111860   2.170731   3.449047
    16  H    2.899524   2.166738   1.112858   2.175058   3.254244
                    6          7          8          9         10
     6  O    0.000000
     7  H    3.307828   0.000000
     8  H    3.286810   1.766650   0.000000
     9  H    2.012956   2.299181   2.902539   0.000000
    10  H    1.965609   2.909529   2.294076   1.794830   0.000000
    11  H    2.062797   3.556971   4.210538   3.048511   3.786289
    12  H    1.960951   4.673743   4.683576   3.831602   3.825343
    13  H    3.401848   4.206064   4.142294   4.714211   4.636475
    14  H    2.705190   3.970720   3.243140   4.174510   3.458742
    15  H    3.886133   2.757402   2.274689   4.280059   3.969126
    16  H    3.568166   2.277643   2.960185   3.722794   4.169878
                   11         12         13         14         15
    11  H    0.000000
    12  H    1.797101   0.000000
    13  H    2.583275   2.574860   0.000000
    14  H    3.119428   2.518608   1.774925   0.000000
    15  H    3.862527   4.331505   2.580800   2.417472   0.000000
    16  H    2.772885   3.908343   2.420870   3.074394   1.768671
                   16
    16  H    0.000000
 Stoichiometry    C5H10O
 Framework group  C1[X(C5H10O)]
 Deg. of freedom    42
 Full point group                 C1      NOp   1
 Largest Abelian subgroup         C1      NOp   1
 Largest concise Abelian subgroup C1      NOp   1
                         Standard orientation:                         
 ---------------------------------------------------------------------
 Center     Atomic      Atomic             Coordinates (Angstroms)
 Number     Number       Type             X           Y           Z
 ---------------------------------------------------------------------
      1          6           0       -0.480886   -1.314297    0.302138
      2          6           0        0.896611   -1.098625   -0.310127
      3          6           0        1.470293    0.247247    0.126014
      4          6           0        0.464899    1.401670    0.047891
      5          6           0       -1.020652    1.041285   -0.066676
      6          8           0       -1.424629   -0.334199   -0.136293
      7          1           0        0.600689    2.047146    0.944912
      8          1           0        0.732689    2.050338   -0.816797
      9          1           0       -1.612785    1.446706    0.782926
     10          1           0       -1.467268    1.428069   -1.005898
     11          1           0       -0.475518   -1.310610    1.413203
     12          1           0       -0.976098   -2.240768   -0.040687
     13          1           0        1.579479   -1.926589   -0.025848
     14          1           0        0.817839   -1.135068   -1.420035
     15          1           0        2.355869    0.488240   -0.501608
     16          1           0        1.860557    0.162453    1.164743
 ---------------------------------------------------------------------
 Rotational constants (GHZ):      4.5766900      4.3220667      2.4776216
 Standard basis: VSTO-6G (5D, 7F)
 There are    34 symmetry adapted basis functions of A   symmetry.
 Integral buffers will be    131072 words long.
 Regular integral format.
 Two-electron integral symmetry is turned off.
    34 basis functions,   204 primitive gaussians,    34 cartesian basis functions
    18 alpha electrons       18 beta electrons
       nuclear repulsion energy       164.9400071636 Hartrees.
 Do NDO integrals.
 One-electron integrals computed using PRISM.
 NBasis=    34 RedAO= F  NBF=    34
 NBsUse=    34 1.00D-04 NBFU=    34
 Initial guess read from the read-write file.
 B after Tr=     0.000000    0.000000    0.000000
         Rot=    1.000000    0.000000    0.000000    0.000000 Ang=   0.00 deg.
 Initial guess orbital symmetries:
       Occupied  (A) (A) (A) (A) (A) (A) (A) (A) (A) (A) (A) (A)
                 (A) (A) (A) (A) (A) (A)
       Virtual   (A) (A) (A) (A) (A) (A) (A) (A) (A) (A) (A) (A)
                 (A) (A) (A) (A)
 Requested convergence on RMS density matrix=1.00D-08 within 128 cycles.
 Requested convergence on MAX density matrix=1.00D-06.
 Requested convergence on             energy=1.00D-06.
 No special actions if energy rises.
 Overlap will be assumed to be unity.
 Keep J ints in memory in canonical form, NReq=883512.
 SCF Done:  E(RPM6) = -0.844116282341E-01 A.U. after   14 cycles
             Convg  =    0.9456D-08             -V/T =  0.9961
 Calling FoFJK, ICntrl=      2127 FMM=F ISym2X=0 I1Cent= 0 IOpClX= 0 NMat=1 NMatS=1 NMatT=0.
 ***** Axes restored to original set *****
 -------------------------------------------------------------------
 Center     Atomic                   Forces (Hartrees/Bohr)
 Number     Number              X              Y              Z
 -------------------------------------------------------------------
      1        6           0.004443957   -0.000995505    0.007592781
      2        6           0.002639104    0.000817075   -0.003138589
      3        6          -0.000344808    0.002666036    0.002350289
      4        6          -0.002640479   -0.001725358   -0.000800526
      5        6          -0.002446390   -0.006837250    0.002039225
      6        8           0.000278031    0.002522492   -0.004155419
      7        1           0.001063233    0.000078187   -0.001808499
      8        1           0.001770629   -0.000222189    0.001312644
      9        1          -0.001457450    0.003355724   -0.000011202
     10        1          -0.002181890    0.001239403   -0.000501900
     11        1          -0.001921173    0.002259593   -0.002836474
     12        1           0.001537115    0.001966293   -0.001182865
     13        1          -0.001442523   -0.001845046   -0.000504823
     14        1          -0.000181374   -0.000468026    0.002085237
     15        1           0.000588943   -0.001237710    0.001266195
     16        1           0.000295075   -0.001573720   -0.001706074
 -------------------------------------------------------------------
 Cartesian Forces:  Max     0.007592781 RMS     0.002384097

 GradGradGradGradGradGradGradGradGradGradGradGradGradGradGradGradGradGrad
 Berny optimization.
 Using GEDIIS/GDIIS optimizer.
 Internal  Forces:  Max     0.004852040 RMS     0.001394668
 Search for a local minimum.
 Step number   3 out of a maximum of   99
 All quantities printed in internal units (Hartrees-Bohrs-Radians)
 Mixed Optimization -- RFO/linear search
 Update second derivatives using D2CorX and points    2    3
 DE= -1.51D-02 DEPred=-1.05D-02 R= 1.44D+00
 SS=  1.41D+00  RLast= 4.02D-01 DXNew= 8.4853D-01 1.2071D+00
 Trust test= 1.44D+00 RLast= 4.02D-01 DXMaxT set to 8.49D-01
 ITU=  1  1  0
 Use linear search instead of GDIIS.
     Eigenvalues ---    0.01949   0.02114   0.02341   0.03718   0.03875
     Eigenvalues ---    0.04801   0.05142   0.05880   0.06014   0.06138
     Eigenvalues ---    0.06286   0.06582   0.06933   0.08704   0.08903
     Eigenvalues ---    0.09386   0.09946   0.10593   0.11900   0.12370
     Eigenvalues ---    0.12872   0.13106   0.13864   0.19036   0.19372
     Eigenvalues ---    0.22415   0.34027   0.34125   0.34127   0.34128
     Eigenvalues ---    0.34130   0.34131   0.34131   0.34132   0.34162
     Eigenvalues ---    0.34411   0.41223   0.42625   0.44180   0.45384
     Eigenvalues ---    0.45624   0.53059
 RFO step:  Lambda=-8.46732226D-04 EMin= 1.94901014D-02
 Quartic linear search produced a step of -0.04888.
 Iteration  1 RMS(Cart)=  0.01139750 RMS(Int)=  0.00011507
 Iteration  2 RMS(Cart)=  0.00010840 RMS(Int)=  0.00006188
 Iteration  3 RMS(Cart)=  0.00000001 RMS(Int)=  0.00006188
 Variable       Old X    -DE/DX   Delta X   Delta X   Delta X     New X
                                 (Linear)    (Quad)   (Total)
    R1        2.87765  -0.00139  -0.00492   0.00416  -0.00077   2.87688
    R2        2.70136   0.00383  -0.00092   0.01015   0.00923   2.71059
    R3        2.09964  -0.00282  -0.00055  -0.00698  -0.00753   2.09211
    R4        2.08822   0.00150  -0.00024   0.00463   0.00439   2.09261
    R5        2.88497   0.00087  -0.00505   0.00946   0.00438   2.88935
    R6        2.09806  -0.00238  -0.00027  -0.00598  -0.00625   2.09181
    R7        2.10383  -0.00206  -0.00049  -0.00484  -0.00533   2.09850
    R8        2.89666   0.00096  -0.00548   0.00981   0.00432   2.90098
    R9        2.10111  -0.00183  -0.00036  -0.00435  -0.00470   2.09641
   R10        2.10300  -0.00217  -0.00040  -0.00521  -0.00562   2.09738
   R11        2.89681  -0.00209  -0.00537   0.00367  -0.00168   2.89513
   R12        2.10408  -0.00209  -0.00044  -0.00495  -0.00539   2.09868
   R13        2.10445  -0.00214  -0.00045  -0.00509  -0.00554   2.09891
   R14        2.71227   0.00485  -0.00130   0.01241   0.01114   2.72340
   R15        2.10160  -0.00183  -0.00064  -0.00414  -0.00478   2.09682
   R16        2.09684   0.00026  -0.00049   0.00149   0.00099   2.09783
    A1        1.95712  -0.00219   0.00011  -0.01588  -0.01577   1.94135
    A2        1.97928  -0.00154  -0.00283  -0.01246  -0.01522   1.96406
    A3        1.98165  -0.00168  -0.00282  -0.00740  -0.01012   1.97153
    A4        1.88348   0.00182   0.00021   0.01338   0.01336   1.89684
    A5        1.75567   0.00261   0.00567   0.01248   0.01806   1.77373
    A6        1.89144   0.00167   0.00031   0.01428   0.01461   1.90606
    A7        1.92828  -0.00016   0.00096  -0.00593  -0.00497   1.92331
    A8        1.92603  -0.00045  -0.00089  -0.00012  -0.00106   1.92496
    A9        1.90944   0.00046  -0.00048   0.00252   0.00206   1.91150
   A10        1.93174   0.00004  -0.00116  -0.00291  -0.00406   1.92769
   A11        1.91799  -0.00002  -0.00072   0.00595   0.00518   1.92317
   A12        1.84874   0.00015   0.00234   0.00094   0.00329   1.85203
   A13        1.98549   0.00130   0.00067   0.00404   0.00461   1.99010
   A14        1.90616  -0.00009  -0.00080   0.00107   0.00029   1.90646
   A15        1.90844  -0.00048  -0.00073  -0.00011  -0.00080   1.90764
   A16        1.90753  -0.00110  -0.00062  -0.00286  -0.00347   1.90406
   A17        1.91237  -0.00007  -0.00107  -0.00205  -0.00307   1.90930
   A18        1.83804   0.00037   0.00272  -0.00042   0.00227   1.84031
   A19        2.05148   0.00064   0.00075  -0.00137  -0.00062   2.05085
   A20        1.89183  -0.00014  -0.00082  -0.00081  -0.00161   1.89023
   A21        1.89709  -0.00013  -0.00111   0.00381   0.00265   1.89974
   A22        1.89092  -0.00017  -0.00086  -0.00094  -0.00182   1.88910
   A23        1.88803  -0.00042  -0.00062   0.00052  -0.00008   1.88796
   A24        1.83231   0.00018   0.00301  -0.00125   0.00175   1.83406
   A25        2.09635  -0.00247  -0.00025  -0.01170  -0.01196   2.08440
   A26        1.95323  -0.00193  -0.00306  -0.01373  -0.01675   1.93649
   A27        1.95128  -0.00176  -0.00287  -0.01003  -0.01287   1.93842
   A28        1.80962   0.00275   0.00178   0.01597   0.01761   1.82722
   A29        1.75149   0.00276   0.00431   0.01317   0.01742   1.76891
   A30        1.88101   0.00164   0.00076   0.01227   0.01301   1.89402
   A31        2.04470   0.00204  -0.00019   0.01043   0.01018   2.05488
    D1        1.09097  -0.00034  -0.00193   0.01157   0.00956   1.10054
    D2       -3.05019  -0.00071  -0.00336   0.00376   0.00037  -3.04982
    D3       -1.02276  -0.00051  -0.00132   0.00632   0.00496  -1.01780
    D4       -1.04779   0.00010  -0.00024   0.01553   0.01516  -1.03263
    D5        1.09424  -0.00026  -0.00167   0.00772   0.00596   1.10020
    D6        3.12166  -0.00007   0.00037   0.01028   0.01055   3.13222
    D7        3.06638   0.00047   0.00345   0.01235   0.01582   3.08221
    D8       -1.07478   0.00011   0.00202   0.00454   0.00663  -1.06815
    D9        0.95265   0.00030   0.00406   0.00710   0.01122   0.96387
   D10       -0.85190  -0.00078   0.00305  -0.02402  -0.02105  -0.87296
   D11        1.34030  -0.00293  -0.00030  -0.04112  -0.04163   1.29866
   D12       -2.96337   0.00068   0.00285  -0.01532  -0.01232  -2.97569
   D13       -0.78393  -0.00133   0.00038  -0.01346  -0.01311  -0.79705
   D14       -2.92011  -0.00075   0.00131  -0.01335  -0.01204  -2.93214
   D15        1.36021  -0.00087  -0.00108  -0.01338  -0.01447   1.34574
   D16       -2.92262  -0.00068   0.00165  -0.00725  -0.00565  -2.92827
   D17        1.22440  -0.00009   0.00258  -0.00715  -0.00458   1.21982
   D18       -0.77848  -0.00021   0.00018  -0.00717  -0.00701  -0.78548
   D19        1.32471  -0.00087  -0.00008  -0.01027  -0.01039   1.31432
   D20       -0.81146  -0.00029   0.00085  -0.01016  -0.00931  -0.82077
   D21       -2.81433  -0.00041  -0.00155  -0.01018  -0.01174  -2.82607
   D22        0.28380   0.00005  -0.00076   0.00880   0.00807   0.29187
   D23        2.43388   0.00018  -0.00207   0.00585   0.00382   2.43770
   D24       -1.86681   0.00025   0.00046   0.00590   0.00640  -1.86041
   D25        2.41922   0.00002  -0.00179   0.01087   0.00906   2.42828
   D26       -1.71389   0.00014  -0.00310   0.00791   0.00481  -1.70908
   D27        0.26861   0.00022  -0.00057   0.00797   0.00739   0.27600
   D28       -1.85819  -0.00019   0.00052   0.00765   0.00817  -1.85001
   D29        0.29189  -0.00007  -0.00079   0.00469   0.00392   0.29581
   D30        2.27439   0.00001   0.00174   0.00474   0.00650   2.28089
   D31       -0.03132   0.00009   0.00143  -0.01262  -0.01111  -0.04243
   D32        2.09576   0.00016   0.00096  -0.01242  -0.01137   2.08439
   D33       -2.07531  -0.00034  -0.00182  -0.01343  -0.01525  -2.09055
   D34       -2.18186  -0.00005   0.00272  -0.00973  -0.00696  -2.18883
   D35       -0.05478   0.00002   0.00224  -0.00952  -0.00723  -0.06201
   D36        2.05734  -0.00048  -0.00053  -0.01053  -0.01110   2.04623
   D37        2.12387   0.00004  -0.00004  -0.00806  -0.00805   2.11582
   D38       -2.03223   0.00010  -0.00052  -0.00786  -0.00832  -2.04055
   D39        0.07989  -0.00040  -0.00329  -0.00887  -0.01220   0.06769
   D40        0.32065   0.00061  -0.00258   0.02327   0.02073   0.34138
   D41       -1.87528   0.00255   0.00019   0.03613   0.03650  -1.83878
   D42        2.46470  -0.00092  -0.00294   0.01397   0.01093   2.47563
         Item               Value     Threshold  Converged?
 Maximum Force            0.004852     0.000450     NO 
 RMS     Force            0.001395     0.000300     NO 
 Maximum Displacement     0.047435     0.001800     NO 
 RMS     Displacement     0.011364     0.001200     NO 
 Predicted change in Energy=-4.653210D-04
 GradGradGradGradGradGradGradGradGradGradGradGradGradGradGradGradGradGrad

                          Input orientation:                          
 ---------------------------------------------------------------------
 Center     Atomic      Atomic             Coordinates (Angstroms)
 Number     Number       Type             X           Y           Z
 ---------------------------------------------------------------------
      1          6           0        1.388158   -0.004146    0.308657
      2          6           0        0.737679    1.224207   -0.312367
      3          6           0       -0.719836    1.333551    0.136490
      4          6           0       -1.497434    0.012008    0.062376
      5          6           0       -0.684717   -1.281716   -0.051258
      6          8           0        0.752106   -1.210068   -0.137037
      7          1           0       -2.145270   -0.062334    0.961354
      8          1           0       -2.199623    0.056579   -0.797037
      9          1           0       -0.882109   -1.951344    0.811195
     10          1           0       -0.932425   -1.827733   -0.985538
     11          1           0        1.368340    0.019071    1.415335
     12          1           0        2.429421   -0.161292   -0.033878
     13          1           0        1.297701    2.137455   -0.033679
     14          1           0        0.793600    1.154114   -1.419218
     15          1           0       -1.237075    2.094231   -0.483617
     16          1           0       -0.755616    1.724517    1.174621
 ---------------------------------------------------------------------
                    Distance matrix (angstroms):
                    1          2          3          4          5
     1  C    0.000000
     2  C    1.522382   0.000000
     3  C    2.502542   1.528980   0.000000
     4  C    2.896128   2.570134   1.535131   0.000000
     5  C    2.461410   2.893275   2.622232   1.532038   0.000000
     6  O    1.434383   2.440624   2.951513   2.567813   1.441164
     7  H    3.593677   3.404254   2.158878   1.110576   2.155339
     8  H    3.754787   3.197812   2.166079   1.110696   2.154566
     9  H    3.032860   3.737677   3.357393   2.189544   1.109590
    10  H    3.222657   3.543550   3.361229   2.191348   1.110123
    11  H    1.107099   2.198873   2.779169   3.169102   2.838659
    12  H    1.107363   2.204350   3.490187   3.931856   3.309609
    13  H    2.170675   1.106938   2.178457   3.512767   3.952343
    14  H    2.163474   1.110478   2.177824   2.957764   3.160697
    15  H    3.452931   2.164698   1.109371   2.168306   3.448050
    16  H    2.886856   2.165957   1.109887   2.172572   3.247343
                    6          7          8          9         10
     6  O    0.000000
     7  H    3.304321   0.000000
     8  H    3.279131   1.763245   0.000000
     9  H    2.029604   2.277384   2.890329   0.000000
    10  H    1.984719   2.894480   2.278586   1.801682   0.000000
    11  H    2.073737   3.543752   4.198375   3.051564   3.803735
    12  H    1.980898   4.682742   4.696587   3.858065   3.871006
    13  H    3.393268   4.205141   4.140535   4.709953   4.647818
    14  H    2.689808   3.972886   3.248243   4.174519   3.472557
    15  H    3.872383   2.750188   2.275249   4.262536   3.965670
    16  H    3.550417   2.273644   2.958818   3.695947   4.161253
                   11         12         13         14         15
    11  H    0.000000
    12  H    1.805172   0.000000
    13  H    2.567524   2.562231   0.000000
    14  H    3.106983   2.515029   1.772229   0.000000
    15  H    3.834122   4.328145   2.574762   2.425450   0.000000
    16  H    2.734534   3.893739   2.417978   3.074643   1.765855
                   16
    16  H    0.000000
 Stoichiometry    C5H10O
 Framework group  C1[X(C5H10O)]
 Deg. of freedom    42
 Full point group                 C1      NOp   1
 Largest Abelian subgroup         C1      NOp   1
 Largest concise Abelian subgroup C1      NOp   1
                         Standard orientation:                         
 ---------------------------------------------------------------------
 Center     Atomic      Atomic             Coordinates (Angstroms)
 Number     Number       Type             X           Y           Z
 ---------------------------------------------------------------------
      1          6           0        1.161518   -0.791644    0.308371
      2          6           0        1.289851    0.591266   -0.315116
      3          6           0        0.125942    1.479264    0.125964
      4          6           0       -1.246459    0.796011    0.046541
      5          6           0       -1.270858   -0.731854   -0.063798
      6          8           0       -0.027328   -1.456082   -0.141765
      7          1           0       -1.834368    1.089249    0.941949
      8          1           0       -1.806265    1.214623   -0.816609
      9          1           0       -1.805979   -1.183341    0.797012
     10          1           0       -1.771738   -1.056320   -0.999862
     11          1           0        1.152069   -0.758898    1.414945
     12          1           0        1.950008   -1.492313   -0.028675
     13          1           0        2.256104    1.051566   -0.032641
     14          1           0        1.303974    0.499537   -1.421709
     15          1           0        0.110710    2.397567   -0.496283
     16          1           0        0.304141    1.828731    1.164216
 ---------------------------------------------------------------------
 Rotational constants (GHZ):      4.5356714      4.3511673      2.4776139
 Standard basis: VSTO-6G (5D, 7F)
 There are    34 symmetry adapted basis functions of A   symmetry.
 Integral buffers will be    131072 words long.
 Regular integral format.
 Two-electron integral symmetry is turned off.
    34 basis functions,   204 primitive gaussians,    34 cartesian basis functions
    18 alpha electrons       18 beta electrons
       nuclear repulsion energy       164.9153486822 Hartrees.
 Do NDO integrals.
 One-electron integrals computed using PRISM.
 NBasis=    34 RedAO= F  NBF=    34
 NBsUse=    34 1.00D-04 NBFU=    34
 Initial guess read from the read-write file.
 B after Tr=     0.000000    0.000000    0.000000
         Rot=    1.000000    0.000000    0.000000    0.000000 Ang=   0.00 deg.
 Initial guess orbital symmetries:
       Occupied  (A) (A) (A) (A) (A) (A) (A) (A) (A) (A) (A) (A)
                 (A) (A) (A) (A) (A) (A)
       Virtual   (A) (A) (A) (A) (A) (A) (A) (A) (A) (A) (A) (A)
                 (A) (A) (A) (A)
 Requested convergence on RMS density matrix=1.00D-08 within 128 cycles.
 Requested convergence on MAX density matrix=1.00D-06.
 Requested convergence on             energy=1.00D-06.
 No special actions if energy rises.
 Overlap will be assumed to be unity.
 Keep J ints in memory in canonical form, NReq=883512.
 SCF Done:  E(RPM6) = -0.849586261778E-01 A.U. after   14 cycles
             Convg  =    0.8905D-08             -V/T =  0.9961
 Calling FoFJK, ICntrl=      2127 FMM=F ISym2X=0 I1Cent= 0 IOpClX= 0 NMat=1 NMatS=1 NMatT=0.
 ***** Axes restored to original set *****
 -------------------------------------------------------------------
 Center     Atomic                   Forces (Hartrees/Bohr)
 Number     Number              X              Y              Z
 -------------------------------------------------------------------
      1        6           0.000672193   -0.001621794    0.004259587
      2        6           0.000318631    0.001089845   -0.002023800
      3        6          -0.000157249    0.000888226    0.000969022
      4        6          -0.001020343    0.000447605   -0.000829563
      5        6           0.000883543   -0.002585103    0.002106510
      6        8          -0.000480807    0.000924365   -0.003202996
      7        1          -0.000002204    0.000254704   -0.000696117
      8        1           0.000937540    0.000270395    0.000249929
      9        1           0.000605127    0.001589876   -0.000146594
     10        1           0.000561061    0.000675547    0.000463125
     11        1          -0.001070629    0.000190342   -0.001352546
     12        1          -0.000756610   -0.000148686   -0.000401792
     13        1          -0.000550640   -0.000238707   -0.000453332
     14        1          -0.000487114   -0.000484550    0.000952418
     15        1           0.000211990   -0.000334043    0.000563257
     16        1           0.000335511   -0.000918023   -0.000457108
 -------------------------------------------------------------------
 Cartesian Forces:  Max     0.004259587 RMS     0.001175753

 GradGradGradGradGradGradGradGradGradGradGradGradGradGradGradGradGradGrad
 Berny optimization.
 Using GEDIIS/GDIIS optimizer.
 Internal  Forces:  Max     0.001436936 RMS     0.000476707
 Search for a local minimum.
 Step number   4 out of a maximum of   99
 All quantities printed in internal units (Hartrees-Bohrs-Radians)
 Mixed Optimization -- En-DIIS/RFO-DIIS
 Update second derivatives using D2CorX and points    2    3    4
 DE= -5.47D-04 DEPred=-4.65D-04 R= 1.18D+00
 SS=  1.41D+00  RLast= 1.05D-01 DXNew= 1.4270D+00 3.1374D-01
 Trust test= 1.18D+00 RLast= 1.05D-01 DXMaxT set to 8.49D-01
 ITU=  1  1  1  0
 Use linear search instead of GDIIS.
     Eigenvalues ---    0.01459   0.02090   0.02249   0.03718   0.03853
     Eigenvalues ---    0.04808   0.05232   0.05800   0.06027   0.06154
     Eigenvalues ---    0.06334   0.06684   0.07036   0.08748   0.08840
     Eigenvalues ---    0.09414   0.09926   0.10576   0.11776   0.12080
     Eigenvalues ---    0.12787   0.12970   0.13806   0.19195   0.19930
     Eigenvalues ---    0.23427   0.32199   0.34125   0.34126   0.34128
     Eigenvalues ---    0.34130   0.34131   0.34131   0.34133   0.34196
     Eigenvalues ---    0.34637   0.41347   0.42704   0.44595   0.45612
     Eigenvalues ---    0.51435   0.53558
 RFO step:  Lambda=-3.29634220D-04 EMin= 1.45899973D-02
 Quartic linear search produced a step of  0.23552.
[...]
   D30        2.98811  -0.00001   0.00000  -0.00115  -0.00115   2.98695
   D31       -0.95730   0.00000   0.00000  -0.00058  -0.00058  -0.95788
   D32        1.17136   0.00000   0.00000  -0.00053  -0.00053   1.17083
   D33       -2.93711  -0.00001   0.00000  -0.00081  -0.00081  -2.93791
   D34       -3.09798   0.00000   0.00000  -0.00044  -0.00044  -3.09841
   D35       -0.96932   0.00000   0.00000  -0.00039  -0.00039  -0.96971
   D36        1.20540  -0.00001   0.00000  -0.00066  -0.00066   1.20474
   D37        1.14862   0.00000   0.00000  -0.00049  -0.00049   1.14813
   D38       -3.00591   0.00001   0.00000  -0.00044  -0.00044  -3.00635
   D39       -0.83119  -0.00001   0.00000  -0.00071  -0.00071  -0.83190
   D40        1.00769   0.00001   0.00000   0.00096   0.00096   1.00864
   D41       -1.15384   0.00001   0.00000   0.00104   0.00104  -1.15280
   D42        3.10337   0.00000   0.00000   0.00103   0.00103   3.10439
         Item               Value     Threshold  Converged?
 Maximum Force            0.000028     0.000450     YES
 RMS     Force            0.000008     0.000300     YES
 Maximum Displacement     0.003912     0.001800     NO 
 RMS     Displacement     0.000845     0.001200     YES
 Predicted change in Energy=-1.304922D-07
 GradGradGradGradGradGradGradGradGradGradGradGradGradGradGradGradGradGrad

 1\1\GINC-RR56\Freq\RPM6\ZDO\C5H10O1\HMAYES\13-Jun-2012\0\\#N Geom=AllC
 heck Guess=TCheck SCRF=Check GenChk RPM6/ZDO Freq\\from http://6ring.b
 io.nrc.ca/suppl.html\\0,1\C,1.3917853327,-0.0507381171,0.1261632713\C,
 0.6980549356,1.2608915886,-0.2529886214\C,-0.743109658,1.2761450053,0.
 2743629352\C,-1.4930873103,0.0217209539,-0.1939073227\C,-0.7109848264,
 -1.2403351048,0.1815426903\O,0.6377505483,-1.1935657976,-0.3287927375\
 H,-2.5071967526,-0.0116341926,0.2423244179\H,-1.6267186886,0.057998310
 8,-1.2933402939\H,-0.6711749124,-1.3922889971,1.2736800693\H,-1.106008
 111,-2.1460028815,-0.3125961095\H,1.5441113295,-0.1379063611,1.2155760
 114\H,2.3516119343,-0.1905279651,-0.4024579948\H,1.2662469027,2.122724
 6124,0.1396805132\H,0.6907920616,1.3676755859,-1.3558934033\H,-1.26643
 71767,2.1846084593,-0.0767961491\H,-0.7427356087,1.3283349007,1.379842
 7236\\Version=EM64L-G09RevB.01\State=1-A\HF=-0.0928162\RMSD=2.177e-09\
 RMSF=2.259e-05\ZeroPoint=0.1344817\Thermal=0.1402024\Dipole=-0.3171225
 ,0.5783084,0.3891205\DipoleDeriv=0.0018877,0.1983661,0.1643607,0.22838
 49,0.5682223,0.046011,0.2043001,0.0385022,0.0106048,-0.2783634,-0.0785
 917,-0.0343349,-0.1301978,-0.4413977,-0.0242849,-0.0281258,0.0109258,-
 0.3911685,-0.0937828,0.125319,-0.0206341,0.1253005,-0.2424404,0.026835
 3,-0.0225118,0.0301471,-0.2237334,-0.4883616,-0.0007508,0.0424394,0.04
 95245,-0.2285933,0.011204,0.0081886,0.0261011,-0.3939269,0.5949919,-0.
 1438512,-0.144451,-0.1726869,-0.0420452,-0.1090319,-0.1579351,-0.14850
 64,0.0278307,-0.7410797,-0.1054329,-0.0055224,-0.1058367,-0.6122981,0.
 0291208,-0.0148216,0.0452649,-0.3939173,0.1711165,-0.0004014,-0.010766
 4,0.0064312,0.0962279,-0.0039004,-0.0179476,-0.000429,0.1442959,0.1511
 977,0.0055311,-0.0048284,-0.0011212,0.0976878,0.0046161,0.0305415,-0.0
 035294,0.1854223,0.0056885,0.0331178,0.0117205,0.0255976,0.0723879,-0.
 0093292,0.0102157,-0.0137668,0.1022056,0.036457,0.0034911,0.0121015,0.
 047839,0.1586872,0.0252718,0.0491911,0.0574981,0.1151124,0.0810474,-0.
 0199369,0.0032268,-0.0122516,-0.0031344,-0.0119261,0.0076297,-0.012654
 7,0.1024172,0.1449146,-0.0208424,-0.0285674,-0.0655917,0.0460134,0.006
 8067,-0.0742293,-0.0101032,0.1192951,0.1195166,0.0387393,0.0090122,0.0
 315744,0.1490607,0.0057875,0.0098548,0.013417,0.143066,0.1134038,0.020
 2045,0.0009698,0.027968,0.1345625,0.0066241,-0.0104295,-0.0276363,0.18
 64688,0.0974539,-0.0313976,0.00661,-0.0312084,0.1342395,-0.00952,0.010
 5722,-0.0164942,0.125566,0.0838927,-0.0235673,-0.0013357,-0.0237291,0.
 1128049,0.005715,-0.0044914,0.0112622,0.1404572\Polar=41.4451909,1.886
 0763,39.2598533,-0.9732762,1.2538312,32.5427233\HyperPolar=-26.1439171
 ,11.7328793,1.5925915,33.498487,9.9937347,5.2418867,2.6835348,-1.02481
 64,1.6036597,22.3396033\PG=C01 [X(C5H10O1)]\NImag=0\\0.45672729,-0.019
 80395,0.43561344,-0.00636755,0.00176633,0.42576490,-0.09028831,0.05450
 317,-0.01911898,0.46374603,0.05810197,-0.14823771,0.03492250,-0.001588
 57,0.46490554,-0.02043860,0.03235936,-0.07034303,-0.00741579,-0.007374
 31,0.42645440,-0.02796401,0.01959578,0.00378036,-0.17790806,-0.0008680
 1,0.04696292,0.45997841,0.02636482,-0.00535630,-0.00540729,0.00409701,
 -0.05600922,-0.00146339,0.00322008,0.45685266,-0.00143664,-0.00240115,
 0.00465591,0.04764402,0.00022237,-0.07630315,-0.00812501,0.01289533,0.
 43067707,-0.00251757,0.00273268,-0.00099635,-0.02972584,-0.02615389,-0
 .00302956,-0.08882926,-0.05769057,-0.02288664,0.46386707,-0.00056304,-
 0.00091912,-0.00096063,-0.01703697,-0.00359791,0.00140609,-0.05269267,
 -0.14874835,-0.03690012,-0.00095656,0.46562149,-0.00152647,-0.00025836
 ,0.00089372,0.00220956,0.00461615,0.00595986,-0.02120896,-0.03697561,-
 0.07262792,0.00858377,0.00171225,0.42555935,-0.04137327,-0.02711661,-0
 .00169074,-0.00028742,0.00149265,0.00102077,0.00915394,-0.00275636,0.0
 0267856,-0.08468390,0.05120716,-0.01776264,0.42384790,-0.03527085,-0.0
 0314329,0.01487829,-0.00176344,-0.00301719,0.00133426,0.00425687,-0.04
 233932,0.00088183,0.05471309,-0.15388165,0.03382437,0.00022679,0.46875
 040,-0.00930280,0.01035584,0.00358273,0.00142396,0.00038948,0.00076151
 ,0.00241047,-0.00485440,0.00454664,-0.02070895,0.03416209,-0.07029839,
 0.00183779,0.00539795,0.42541714,-0.09223788,-0.06742298,-0.02910793,0
 .00866017,-0.00575428,0.00269997,-0.00146886,-0.00114472,0.00061743,-0
 .04382185,0.02112086,0.00553111,-0.19292244,0.00836814,0.08283279,0.41
 457236,-0.05676471,-0.16271191,-0.07369561,-0.01057892,-0.05341461,-0.
 00628862,-0.00116592,-0.00011534,-0.00096142,0.02579434,-0.00079721,-0
 .00645415,-0.00240453,-0.05682708,-0.01326821,0.10362934,0.29672354,-0
 .01726954,-0.06420299,-0.07139915,0.00144758,-0.00294884,0.00578158,0.
 00010849,-0.00006408,0.00060136,0.00320778,-0.00346461,0.00568179,0.06
 884302,-0.01896256,-0.07653816,-0.06659003,0.10313986,0.16178621,0.000
 26854,0.00004034,-0.00020100,-0.00051836,-0.00124481,-0.00047375,-0.02
 300763,-0.01433989,0.00324773,-0.18236280,-0.00474919,0.06469960,-0.02
 500308,0.01329600,0.00481765,-0.00097657,0.00171019,-0.00029032,0.2332
 6333,-0.00018033,-0.00054403,0.00002102,-0.00167516,-0.00219173,-0.000
 80000,-0.02438391,-0.00744448,0.00494120,-0.00439479,-0.03458603,0.002
 24000,0.02292200,-0.00455681,-0.00570306,0.00362088,-0.00234008,0.0000
 6663,0.00567065,0.04878731,0.00021297,0.00016336,-0.00003881,-0.000579
 53,-0.00091378,-0.00012818,-0.00458078,-0.00084992,0.00478048,0.067727
 62,0.00211432,-0.06308152,-0.00213707,-0.00060745,0.00447648,-0.001489
 54,0.00078179,0.00021506,-0.07842979,-0.00185260,0.07027460,-0.0003848
 1,-0.00001370,-0.00018976,-0.00052367,-0.00002148,-0.00020416,-0.00210
 435,-0.00735474,-0.01662754,-0.03723138,0.00065743,-0.01819652,-0.0020
 5550,0.00912279,-0.01751017,0.00045742,-0.00076099,0.00060212,-0.00121
 236,-0.00089473,0.02041080,0.04403875,0.00005587,0.00029932,0.00003568
 ,-0.00011350,-0.00001548,0.00000210,-0.00805899,-0.00687144,-0.0239853
 7,0.00088978,-0.03356852,0.00592551,0.00891822,-0.00900635,0.02478459,
 -0.00067589,0.00017985,-0.00046615,-0.00033274,0.00371321,0.00098276,-
 0.00047813,0.05065125,-0.00003488,-0.00018416,-0.00020836,-0.00029474,
 0.00019672,-0.00018397,-0.00958380,-0.01263461,-0.01734392,-0.01990243
 ,0.00599936,-0.20951948,-0.01074624,0.01351481,-0.01468950,0.00116736,
 -0.00012482,-0.00037105,0.00701629,0.00085583,-0.01712815,0.03287587,-
 0.00712633,0.25917775,0.00055063,0.00002233,0.00315437,-0.00004619,-0.
 00008502,-0.00012731,0.00002164,-0.00021567,0.00005737,-0.00128277,0.0
 0857924,-0.01434537,-0.03206634,-0.00091253,-0.01552362,-0.02035318,-0
 .00390573,0.03333579,-0.00016665,0.00034107,-0.00043866,-0.00064437,0.
 00152533,-0.00034755,0.05125460,-0.00065124,-0.00047394,0.00115286,-0.
 00008170,-0.00001118,-0.00009776,0.00001877,-0.00028430,0.00036379,0.0
 0939231,-0.01089199,0.02523806,-0.00097313,-0.03815148,0.02004100,-0.0
 0234929,0.00375055,0.00435550,0.00012686,-0.00000425,0.00048185,0.0015
 8972,-0.00220245,0.00055351,-0.00392428,0.04771206,0.00056617,0.001195
 91,0.00039539,-0.00004124,-0.00012814,-0.00012500,0.00026331,0.0001493
 7,0.00002457,-0.00772978,0.01219301,-0.01362747,-0.01080357,0.02284714
 ,-0.20330167,0.01938451,0.00191464,-0.02078413,-0.00040441,0.00012724,
 0.00012839,-0.00048553,0.00082558,-0.00024786,0.00320485,-0.03438533,0
 .25437846,-0.00524435,0.00186782,0.00296826,0.00008697,0.00022246,0.00
 004618,-0.00080882,0.00170551,-0.00049003,0.00475647,0.01055371,0.0030
 3203,-0.05242665,-0.04736389,-0.02622199,-0.03033365,-0.03080756,-0.00
 918972,0.00005335,0.00045318,0.00003017,0.00039043,0.00014024,0.000210
 27,0.00277722,-0.00291932,-0.00408180,0.08133198,-0.00038546,0.0001311
 8,-0.00034299,0.00015745,0.00037225,0.00006725,0.00130138,-0.00183572,
 0.00059439,0.00082787,-0.03359694,-0.00762423,-0.04998511,-0.15100711,
 -0.06542990,-0.01779473,-0.00736829,-0.00027672,0.00050468,-0.00056409
 ,-0.00007976,0.00002024,-0.00052162,0.00032977,-0.00147933,0.00100625,
 -0.00469051,0.06717080,0.19367033,0.00245545,-0.00121044,-0.00077406,-
 0.00008428,-0.00014255,-0.00011984,-0.00042959,0.00067982,0.00002286,0
 .00058741,0.00224375,0.00457616,-0.02943075,-0.06920086,-0.07366611,0.
 00109885,0.00631528,0.00710233,0.00018045,0.00000545,0.00000513,-0.000
 05014,0.00079823,0.00042299,-0.00864895,-0.01756512,-0.01676171,0.0339
 6606,0.07746723,0.07890658,-0.03853071,0.00266694,-0.01567942,-0.00124
 640,0.00902315,-0.01494634,-0.00031807,0.00019544,-0.00033615,-0.00008
 325,-0.00005073,0.00014867,-0.00063610,-0.00008598,-0.00256943,-0.0066
 9228,-0.01242707,-0.02116678,-0.00004887,0.00000475,-0.00004056,-0.000
 01225,-0.00001023,-0.00003542,-0.00004269,-0.00024403,0.00028385,0.000
 00082,-0.00008116,0.00001839,0.04770147,0.00271596,-0.03192833,0.01957
 333,0.00887330,-0.01088489,0.02491309,-0.00002655,0.00002808,0.0001406
 9,-0.00005029,0.00003695,0.00005676,0.00052478,0.00051287,-0.00213124,
 -0.01417733,-0.01215183,-0.02598569,-0.00000291,0.00003770,-0.00000163
 ,-0.00001045,-0.00004952,0.00000633,0.00010845,0.00003941,0.00019015,0
 .00002513,-0.00000627,0.00002147,-0.00024930,0.05294240,-0.02052150,0.
 01697390,-0.20303497,-0.00716610,0.01249878,-0.01366450,-0.00025121,-0
 .00015581,0.00004910,0.00013027,-0.00003248,-0.00013710,-0.00129005,0.
 00013099,0.00059691,-0.01184684,-0.01534242,-0.01854201,-0.00000967,-0
 .00000810,0.00003804,-0.00002594,0.00000871,-0.00004377,-0.00031079,-0
 .00013727,-0.00001949,0.00029908,-0.00006702,-0.00014351,0.03590844,-0
 .01581037,0.25268633,-0.16215299,0.02058504,0.07258702,-0.01827001,0.0
 1488090,0.00552362,-0.00026100,0.00097964,-0.00026960,0.00046645,-0.00
 007157,-0.00010327,-0.00069773,-0.00327885,-0.00116554,-0.03486622,-0.
 01477818,0.00695519,0.00002483,-0.00001950,0.00002661,-0.00007782,-0.0
 0001290,-0.00002134,-0.00003420,-0.00006541,-0.00009913,-0.00073479,-0
 .00008066,0.00025741,0.00050491,0.00052993,0.00544276,0.21648965,0.023
 29062,-0.03614399,-0.01305472,0.02415084,-0.01058894,-0.00712749,0.001
 38335,-0.00237578,0.00072856,-0.00000050,-0.00000488,-0.00000715,-0.00
 101027,-0.00459071,-0.00260113,-0.02782427,-0.00251595,0.00905891,0.00
 003482,-0.00001935,-0.00000305,0.00000784,-0.00004124,0.00003008,0.000
 03062,0.00001734,-0.00029578,-0.00128996,0.00010771,0.00058606,-0.0004
 9120,0.00422650,0.00061263,-0.01964946,0.05234302,0.07742272,-0.012137
 77,-0.07883397,-0.00189773,0.00042604,0.00459777,-0.00038211,0.0007363
 6,0.00001410,0.00014267,-0.00000111,-0.00012177,-0.00020676,-0.0025121
 0,-0.00059997,-0.00370365,0.00311267,0.00680472,0.00005864,-0.00001397
 ,0.00000333,-0.00003007,-0.00001013,0.00007981,-0.00003305,-0.00000566
 ,-0.00013138,-0.00056368,0.00008914,0.00032156,0.01885349,-0.00215337,
 -0.01771774,-0.08884071,0.01222588,0.08509080,0.00617001,0.00440332,0.
 00223349,-0.08073054,-0.07028628,-0.03282735,-0.02870563,-0.02093022,-
 0.00404046,-0.00294987,-0.00013662,0.00104917,-0.00039702,0.00021406,0
 .00009517,0.00038368,0.00287816,0.00001931,-0.00025527,-0.00048568,-0.
 00014052,0.00002735,0.00007051,0.00007904,0.00001701,-0.00003218,0.000
 01349,-0.00000192,-0.00000543,-0.00001795,0.00015387,0.00017166,0.0000
 9413,0.00002179,0.00046749,-0.00010908,0.10607477,-0.00557943,-0.03567
 520,-0.00588191,-0.07057226,-0.14164413,-0.04953693,-0.01082668,-0.001
 67715,0.00036491,0.00029639,0.00032720,-0.00002967,0.00043769,0.000115
 26,0.00016200,0.00090998,-0.00364795,0.00033776,-0.00000913,0.00004796
 ,0.00003038,-0.00003893,-0.00000808,-0.00006046,-0.00004082,-0.0000256
 6,0.00000720,0.00004759,0.00000453,-0.00005941,-0.00005604,-0.00030497
 ,0.00042523,0.00051733,-0.00053859,-0.00016025,0.08768990,0.18230660,0
 .00168561,0.00230688,0.00442284,-0.03427664,-0.05221561,-0.05766294,0.
 00471946,0.00450400,0.00472501,0.00119024,0.00001973,-0.00021558,-0.00
 024542,-0.00011077,-0.00003465,0.00006738,0.00165457,0.00016369,0.0000
 6066,0.00015690,0.00008961,-0.00003105,-0.00005861,-0.00000564,0.00002
 408,0.00003661,0.00003558,-0.00001213,-0.00002419,0.00000655,-0.000187
 09,0.00062696,0.00010567,0.00004018,-0.00007305,0.00001391,0.03841041,
 0.06000861,0.06394074,0.00003043,0.00753948,-0.01301893,-0.03376240,-0
 .00037331,-0.00289072,-0.01058772,-0.00110743,0.02888303,-0.00020691,-
 0.00028609,0.00011165,0.00014606,-0.00025852,0.00005908,-0.00039694,-0
 .00021627,0.00009618,0.00001852,0.00007537,0.00006359,-0.00055057,-0.0
 0035886,-0.00001781,-0.00004815,0.00001311,0.00000576,-0.00005251,-0.0
 0002577,0.00003013,-0.00044401,0.00139982,-0.00048255,-0.00025027,0.00
 048236,-0.00064213,0.00119272,-0.00270008,-0.01203922,0.04793850,0.008
 36853,-0.01082140,0.02737424,-0.00064839,-0.03610439,0.01452330,-0.000
 71841,0.00351215,0.00140766,-0.00020421,-0.00031658,0.00018831,-0.0003
 1649,-0.00021981,0.00019424,-0.00030032,0.00097831,-0.00077615,-0.0000
 3156,0.00000148,-0.00000249,-0.00046272,-0.00005600,-0.00001311,0.0000
 1291,-0.00001171,0.00002544,-0.00000651,-0.00006466,0.00002427,0.00147
 584,-0.00240161,0.00083392,0.00038860,0.00008780,0.00044639,-0.0035589
 3,0.00008725,-0.01726321,-0.00448155,0.04480902,-0.00685231,0.01578945
 ,-0.01495226,-0.00206859,0.01601602,-0.21046100,0.01551223,0.00124550,
 -0.01924564,-0.00001030,0.00036973,-0.00020048,0.00016961,-0.00005402,
 -0.00022127,-0.00048652,-0.00108886,-0.00031368,0.00001084,-0.00010232
 ,-0.00000649,0.00006449,0.00003054,0.00026327,0.00001269,0.00003240,-0
 .00004587,-0.00000938,0.00003818,0.00007810,-0.00032273,0.00057779,-0.
 00025035,-0.00037379,-0.00002197,0.00045242,-0.00501494,-0.00588100,-0
 .01591205,-0.00207461,-0.02654157,0.26113245,-0.00293725,0.00002372,0.
 00106891,-0.02825193,0.02242612,-0.00297921,-0.07337711,0.06863244,-0.
 02710520,0.00560044,-0.00886335,0.00214543,-0.00086826,-0.00145569,-0.
 00051864,0.00021066,-0.00015869,-0.00003620,0.00016093,-0.00063039,0.0
 0001725,0.00040272,-0.00014347,0.00017449,-0.00001095,0.00004329,-0.00
 007578,0.00022857,-0.00020962,0.00008324,0.00004120,-0.00007617,0.0000
 8352,-0.00017713,0.00050388,-0.00009146,-0.00083223,0.00012667,-0.0001
 3322,-0.00018288,0.00045328,0.00032628,0.09834095,-0.00012965,0.000015
 40,0.00003104,0.01163032,-0.00283909,-0.00052686,0.06856496,-0.1528012
 1,0.04698334,0.00230564,-0.03664428,0.00313731,-0.00130493,-0.00214622
 ,-0.00080319,-0.00016240,0.00041187,0.00005816,-0.00045646,-0.00052017
 ,0.00018865,0.00008498,-0.00041876,-0.00047973,-0.00004848,0.00005954,
 -0.00005264,0.00026996,-0.00035594,0.00005366,0.00001474,0.00001142,0.
 00003628,0.00003109,0.00004205,-0.00004466,-0.00004274,0.00046067,0.00
 007715,0.00023606,0.00019073,-0.00040685,-0.08420903,0.19611974,0.0012
 3569,0.00013254,-0.00024299,0.00551085,-0.00515575,0.00450084,-0.02855
 135,0.04953965,-0.05356209,0.00148336,-0.00607369,0.00444603,-0.000694
 91,-0.00088756,-0.00014994,-0.00010523,0.00017984,-0.00000827,0.000162
 70,0.00015387,0.00015550,-0.00004029,-0.00084560,0.00019764,-0.0000085
 8,0.00002182,-0.00002559,0.00011622,-0.00008780,0.00005416,-0.00001739
 ,0.00002120,-0.00002973,0.00002417,-0.00016540,0.00006170,-0.00017410,
 -0.00007255,0.00016974,0.00075520,-0.00041971,0.00017236,0.03143596,-0
 .05511728,0.05944941,-0.00011570,0.00037636,0.00057793,-0.01093392,0.0
 0022824,0.02907949,-0.03381305,0.00034479,-0.00181098,-0.00099513,-0.0
 0671146,-0.01436779,0.00027000,0.00019190,0.00004398,-0.00021451,-0.00
 004305,-0.00007224,-0.00023790,-0.00042334,-0.00065244,-0.00051961,-0.
 00141531,-0.00053929,0.00007468,0.00005643,-0.00000074,-0.00002333,0.0
 0006475,-0.00001574,-0.00034790,0.00024404,-0.00005344,0.00001440,-0.0
 0008628,0.00002287,-0.00016878,-0.00020220,0.00072656,-0.00284403,0.00
 003005,0.00111721,0.00165230,0.00321597,-0.01113224,0.04820234,0.00043
 089,-0.00010372,-0.00041164,0.00064684,0.00327859,-0.00139014,0.000400
 07,-0.03453402,-0.00527581,-0.00750133,-0.00843205,-0.02558973,0.00013
 782,-0.00049124,-0.00069552,-0.00004264,-0.00015442,0.00012989,-0.0002
 1692,0.00018328,-0.00043227,-0.00144709,-0.00208434,-0.00086326,-0.000
 00835,-0.00052846,0.00007663,-0.00006923,0.00002840,-0.00001680,0.0003
 1513,-0.00010762,0.00003300,0.00004384,-0.00000507,0.00000253,-0.00041
 692,0.00017224,0.00035398,0.00006174,0.00032937,-0.00000289,0.00353705
 ,-0.00158573,0.01877632,0.00412907,0.04403467,0.00017165,-0.00064863,0
 .00011209,0.01470759,-0.00040911,-0.01906413,-0.00064435,-0.00734506,-
 0.21101420,-0.00778902,-0.01278768,-0.01728694,0.00045836,-0.00047426,
 0.00011820,-0.00006970,0.00012557,-0.00017951,-0.00044572,-0.00008803,
 0.00021631,-0.00056191,-0.00090149,-0.00039976,-0.00000532,-0.00008643
 ,0.00010759,-0.00009955,0.00003721,-0.00003144,0.00008867,-0.00004554,
 0.00010691,0.00001640,0.00010769,-0.00003554,0.00033018,0.00034621,0.0
 0015733,0.00116123,-0.00000172,-0.00048950,-0.00439536,0.00686559,-0.0
 1518882,-0.00292318,0.01530578,0.26287137\\0.00000239,0.00003894,-0.00
 004630,0.00001469,-0.00003375,0.00002897,-0.00003902,0.00005918,0.0000
 0157,0.00002014,-0.00003494,0.00004812,-0.00004327,0.00003122,0.000011
 21,0.00002032,-0.00002347,0.00000702,-0.00001093,0.00001419,-0.0000056
 9,0.00000329,-0.00000593,-0.00002925,0.00000999,0.00000465,-0.00000775
 ,0.00001252,-0.00000795,-0.00002279,-0.00000345,-0.00001524,0.00002393
 ,-0.00001310,-0.00000103,0.00001669,0.00000939,0.00001116,-0.00002064,
 -0.00000694,0.00000099,-0.00001122,0.00000196,-0.00001223,-0.00000397,
 0.00002201,-0.00002579,0.00001011\\\@


 EXPERIMENTALISTS THINK SILICON IS REALLY FUN TO USE
     ITS PLACE IN NOVEL COMPOUNDS IS CERTAIN TO AMUSE
 THEY SIT ALL DAY IN LABORATORIES MAKING ALL THIS SLUDGE
     "LOADED WITH THE SILICON THEY SAY", TO ME IT LOOKS LIKE FUDGE.
 FOR HAPPY THOUGH THEY BE WITH CRUD, I'D LIKE TO KNOW A LITTLE
      ABOUT THE PI BONDS ON THE EDGE AND SIGMAS IN THE MIDDLE.

 SO LETS DERIVE A WAVEFUNCTION.....6-31G*
     USE AN OPTIMAL GEOMETRY AND SEE WHERE ELECTRONS ARE.
 BUT WHAT OF CORRELATION?  ASKS THE WIRY LITTLE SKEPTIC.
     WE'LL THROW IN PERTURBATION AS AN ELECTRON ANTISEPTIC.
 AND WHEN THE PROGRAM GIVES US ANSWERS IN THEM WE CAN TRUST
     SINCE NOBODY CAN MAKE THE STUFF, WE HAVE NO CHOICE, WE MUST.

 SO THEORY GUYS HAVE GOT IT MADE, IN ROOMS FREE OF POLLUTION.
     INSTEAD OF PROBLEMS WITH THE REFLUX, THEY HAVE ONLY SOLUTIONS.
 AND WHEN THE FEDS ANNOUNCE THE LIST OF CARCINOGENIC TERRORS,
     THE THEORISTS SIT SAFELY AT THEIR TERMINALS FIXING ERRORS.
 IN OTHER WORDS, EXPERIMENTALISTS WILL LIKELY DIE OF CANCER
     FROM WORKING HARD YET FRUITLESSLY...TILL THEORY GIVES THE ANSWER.
          -- THOMAS A. HOLME, 1983
 Job cpu time:  0 days  0 hours  0 minutes 16.9 seconds.
 File lengths (MBytes):  RWF=     11 Int=      0 D2E=      0 Chk=      2 Scr=      1
 Normal termination of Gaussian 09 at Wed Jun 13 00:45:56 2012.
