 Entering Gaussian System, Link 0=g16
 Initial command:
 /nopt/nrel/apps/gaussian/g16B/g16/l1.exe "/dev/shm/Gau-147694.inp" -scrdir="/dev/shm/"
 Default is to use a total of  36 processors:
                               36 via shared-memory
                                1 via Linda
 Entering Link 1 = /nopt/nrel/apps/gaussian/g16B/g16/l1.exe PID=    147696.
  
 Copyright (c) 1988-2017, Gaussian, Inc.  All Rights Reserved.
  
 This is part of the Gaussian(R) 16 program.  It is based on
 the Gaussian(R) 09 system (copyright 2009, Gaussian, Inc.),
 the Gaussian(R) 03 system (copyright 2003, Gaussian, Inc.),
 the Gaussian(R) 98 system (copyright 1998, Gaussian, Inc.),
 the Gaussian(R) 94 system (copyright 1995, Gaussian, Inc.),
 the Gaussian 92(TM) system (copyright 1992, Gaussian, Inc.),
 the Gaussian 90(TM) system (copyright 1990, Gaussian, Inc.),
 the Gaussian 88(TM) system (copyright 1988, Gaussian, Inc.),
 the Gaussian 86(TM) system (copyright 1986, Carnegie Mellon
 University), and the Gaussian 82(TM) system (copyright 1983,
 Carnegie Mellon University). Gaussian is a federally registered
 trademark of Gaussian, Inc.
  
 This software contains proprietary and confidential information,
 including trade secrets, belonging to Gaussian, Inc.
  
 This software is provided under written license and may be
 used, copied, transmitted, or stored only in accord with that
 written license.
  
 The following legend is applicable only to US Government
 contracts under FAR:
  
                    RESTRICTED RIGHTS LEGEND
  
 Use, reproduction and disclosure by the US Government is
 subject to restrictions as set forth in subparagraphs (a)
 and (c) of the Commercial Computer Software - Restricted
 Rights clause in FAR 52.227-19.
  
 Gaussian, Inc.
 340 Quinnipiac St., Bldg. 40, Wallingford CT 06492
  
  
 ---------------------------------------------------------------
 Warning -- This program may not be used in any manner that
 competes with the business of Gaussian, Inc. or will provide
 assistance to any competitor of Gaussian, Inc.  The licensee
 of this program is prohibited from giving any competitor of
 Gaussian, Inc. access to this program.  By using this program,
 the user acknowledges that Gaussian, Inc. is engaged in the
 business of creating and licensing software in the field of
 computational chemistry and represents and warrants to the
 licensee that it is not a competitor of Gaussian, Inc. and that
 it will not use this program in any manner prohibited above.
 ---------------------------------------------------------------
  

 Cite this work as:
 Gaussian 16, Revision B.01,
 M. J. Frisch, G. W. Trucks, H. B. Schlegel, G. E. Scuseria, 
 M. A. Robb, J. R. Cheeseman, G. Scalmani, V. Barone, 
 G. A. Petersson, H. Nakatsuji, X. Li, M. Caricato, A. V. Marenich, 
 J. Bloino, B. G. Janesko, R. Gomperts, B. Mennucci, H. P. Hratchian, 
 J. V. Ortiz, A. F. Izmaylov, J. L. Sonnenberg, D. Williams-Young, 
 F. Ding, F. Lipparini, F. Egidi, J. Goings, B. Peng, A. Petrone, 
 T. Henderson, D. Ranasinghe, V. G. Zakrzewski, J. Gao, N. Rega, 
 G. Zheng, W. Liang, M. Hada, M. Ehara, K. Toyota, R. Fukuda, 
 J. Hasegawa, M. Ishida, T. Nakajima, Y. Honda, O. Kitao, H. Nakai, 
 T. Vreven, K. Throssell, J. A. Montgomery, Jr., J. E. Peralta, 
 F. Ogliaro, M. J. Bearpark, J. J. Heyd, E. N. Brothers, K. N. Kudin, 
 V. N. Staroverov, T. A. Keith, R. Kobayashi, J. Normand, 
 K. Raghavachari, A. P. Rendell, J. C. Burant, S. S. Iyengar, 
 J. Tomasi, M. Cossi, J. M. Millam, M. Klene, C. Adamo, R. Cammi, 
 J. W. Ochterski, R. L. Martin, K. Morokuma, O. Farkas, 
 J. B. Foresman, and D. J. Fox, Gaussian, Inc., Wallingford CT, 2016.
 
 ******************************************
 Gaussian 16:  ES64L-G16RevB.01 20-Dec-2017
                 7-Jul-2019 
 ******************************************
 %RWF=/dev/shm/,5GB,/tmp/scratch/962831/,-1
 %NoSave
 %Chk=/dev/shm/pe_linear_4_5_cp.chk
 Default route: CacheSize=180224 MaxDisk=256GB
 --------------------------------------
 # m062x/Def2TZVP nosymm Counterpoise=2
 --------------------------------------
 1/4=180224,38=1,62=2,172=1/1;
 2/4=180224,12=2,15=1,17=6,18=5,40=1/2;
 1/4=180224,38=1,53=2,62=2,63=1/22;
 3/4=180224,5=44,7=101,11=2,25=1,30=1,74=-55/1,2,3;
 4/4=180224/1;
 5/4=180224,5=2,38=5/2;
 6/4=180224,7=2,8=2,9=2,10=2,28=1/1;
 1/4=180224,53=2,62=2,63=1/22;
 3/4=180224,5=7,6=11,7=101,11=2,25=1,30=1,74=-55,82=7/1,2,3;
 4/4=180224/1;
 5/4=180224,5=2,38=5/2;
 6/4=180224,7=2,8=2,9=2,10=2,28=1/1;
 1/4=180224,53=2,62=2,63=1/22(-4);
 99/4=180224,5=1,9=1/99;
 ----------------------------------------------------------
 cp calculation from fragment pair [4, 5] and pe_linear.com
 ----------------------------------------------------------
 Symbolic Z-matrix:
 Charge =  0 Multiplicity = 1 in supermolecule
 Charge =  0 Multiplicity = 2 in fragment      1.
 Charge =  0 Multiplicity = 2 in fragment      2.
 C(Fragment=1)        -4.23419   0.0229   -1.41723 
 C(Fragment=1)        -2.97149  -0.70846  -0.98119 
 C(Fragment=1)        -1.83685   0.24175  -0.61894 
 C(Fragment=1)        -0.56648  -0.47529  -0.18092 
 C(Fragment=2)         0.56748   0.47536   0.18108 
 C(Fragment=2)         1.83785  -0.24167   0.6191 
 C(Fragment=2)         2.97249   0.70854   0.98134 
 C(Fragment=2)         4.2352   -0.02282   1.41738 
 H(Fragment=1)        -5.03485  -0.67225  -1.67221 
 H(Fragment=1)        -4.03974   0.6457   -2.29291 
 H(Fragment=1)        -4.59879   0.67664  -0.62213 
 H(Fragment=1)        -2.63777  -1.37749  -1.78025 
 H(Fragment=1)        -3.19324  -1.34706  -0.12066 
 H(Fragment=1)        -2.16935   0.91255   0.18117 
 H(Fragment=1)        -1.61375   0.8823   -1.47956 
 H(Fragment=1)        -0.23492  -1.14588  -0.98139 
 H(Fragment=1)        -0.79053  -1.11565   0.6794 
 H(Fragment=2)         0.23592   1.14595   0.98155 
 H(Fragment=2)         0.79152   1.11573  -0.67924 
 H(Fragment=2)         2.17035  -0.91247  -0.18102 
 H(Fragment=2)         1.61475  -0.88222   1.47971 
 H(Fragment=2)         2.63877   1.37757   1.7804 
 H(Fragment=2)         3.19424   1.34713   0.12081 
 H(Fragment=2)         5.03585   0.67233   1.67235 
 H(Fragment=2)         4.59979  -0.67657   0.62228 
 H(Fragment=2)         4.04075  -0.64562   2.29306 
 
                          Input orientation:                          
 ---------------------------------------------------------------------
 Center     Atomic      Atomic             Coordinates (Angstroms)
 Number     Number       Type             X           Y           Z
 ---------------------------------------------------------------------
      1          6           0       -4.234193    0.022900   -1.417233
      2          6           0       -2.971485   -0.708464   -0.981194
      3          6           0       -1.836849    0.241750   -0.618941
      4          6           0       -0.566480   -0.475287   -0.180915
      5          6           0        0.567477    0.475364    0.181077
      6          6           0        1.837848   -0.241673    0.619097
      7          6           0        2.972487    0.708541    0.981343
      8          6           0        4.235195   -0.022823    1.417382
      9          1           0       -5.034850   -0.672254   -1.672207
     10          1           0       -4.039743    0.645699   -2.292909
     11          1           0       -4.598792    0.676642   -0.622131
     12          1           0       -2.637769   -1.377486   -1.780249
     13          1           0       -3.193236   -1.347056   -0.120664
     14          1           0       -2.169350    0.912546    0.181170
     15          1           0       -1.613750    0.882300   -1.479556
     16          1           0       -0.234924   -1.145876   -0.981385
     17          1           0       -0.790525   -1.115646    0.679402
     18          1           0        0.235923    1.145948    0.981551
     19          1           0        0.791518    1.115728   -0.679237
     20          1           0        2.170345   -0.912470   -0.181016
     21          1           0        1.614754   -0.882222    1.479713
     22          1           0        2.638773    1.377566    1.780396
     23          1           0        3.194236    1.347130    0.120810
     24          1           0        5.035853    0.672331    1.672353
     25          1           0        4.599792   -0.676568    0.622281
     26          1           0        4.040745   -0.645619    2.293060
 ---------------------------------------------------------------------
                    Distance matrix (angstroms):
                    1          2          3          4          5
     1  C    0.000000
     2  C    1.522976   0.000000
     3  C    2.536222   1.523658   0.000000
     4  C    3.902408   2.545362   1.523104   0.000000
     5  C    5.080881   3.908526   2.544678   1.523363   0.000000
     6  C    6.409861   5.090040   3.907663   2.544678   1.523104
     7  C    7.626238   6.417964   5.090041   3.908527   2.545363
     8  C    8.931275   7.626238   6.409862   5.080882   3.902409
     9  H    1.090551   2.176301   3.488837   4.714772   6.011469
    10  H    1.092016   2.166917   2.796084   4.216715   5.232217
    11  H    1.092016   2.166927   2.795974   4.216770   5.232207
    12  H    2.154398   1.094279   2.147565   2.768045   4.189684
    13  H    2.154405   1.094297   2.147643   2.768295   4.189896
    14  H    2.758612   2.149927   1.095765   2.150902   2.771525
    15  H    2.758473   2.149963   1.095781   2.150880   2.771471
    16  H    4.189290   2.771299   2.150124   1.095615   2.150252
    17  H    4.189393   2.771275   2.150119   1.095628   2.150305
    18  H    5.195896   4.192693   2.770475   2.150251   1.095614
    19  H    5.195833   4.192737   2.770521   2.150305   1.095628
    20  H    6.589481   5.207717   4.193043   2.771523   2.150902
    21  H    6.589516   5.207672   4.192997   2.771473   2.150880
    22  H    7.700494   6.591881   5.203661   4.189684   2.768042
    23  H    7.700696   6.592116   5.203932   4.189896   2.768297
    24  H    9.792908   8.547828   7.257373   6.011469   4.714773
    25  H    9.093303   7.739275   6.619236   5.232208   4.216773
    26  H    9.093283   7.739254   6.619160   5.232216   4.216713
                    6          7          8          9         10
     6  C    0.000000
     7  C    1.523658   0.000000
     8  C    2.536223   1.522976   0.000000
     9  H    7.257372   8.547828   9.792908   0.000000
    10  H    6.619160   7.739254   9.093282   1.764230   0.000000
    11  H    6.619236   7.739277   9.093305   1.764179   1.762099
    12  H    5.203660   6.591879   7.700493   2.501004   2.514285
    13  H    5.203934   6.592119   7.700699   2.500837   3.066968
    14  H    4.193046   5.207723   6.589486   3.762670   3.112980
    15  H    4.192993   5.207666   6.589511   3.762669   2.569624
    16  H    2.770471   4.192690   5.195892   4.872458   4.405279
    17  H    2.770525   4.192742   5.195839   4.872469   4.742825
    18  H    2.150123   2.771301   4.189290   6.174896   5.408665
    19  H    2.150120   2.771273   4.189394   6.174903   5.115266
    20  H    1.095766   2.149927   2.758614   7.361806   6.741897
    21  H    1.095780   2.149962   2.758471   7.361788   6.967105
    22  H    2.147564   1.094278   2.154398   8.660642   7.856845
    23  H    2.147644   1.094297   2.154406   8.660871   7.658231
    24  H    3.488838   2.176301   1.090551  10.696404   9.904063
    25  H    2.795975   2.166927   1.092016   9.904091   9.213484
    26  H    2.796083   2.166916   1.092015   9.904064   9.380453
                   11         12         13         14         15
    11  H    0.000000
    12  H    3.066968   0.000000
    13  H    2.514440   1.750341   0.000000
    14  H    2.569656   3.051365   2.499049   0.000000
    15  H    3.112547   2.499133   3.051457   1.751461   0.000000
    16  H    4.742782   2.542733   3.087543   3.054610   2.502565
    17  H    4.405585   3.087192   2.542966   2.502590   3.054601
    18  H    5.115321   4.717347   4.380534   2.545668   3.089959
    19  H    5.408466   4.380451   4.717581   3.090036   2.545646
    20  H    6.967143   5.088393   5.381497   4.721739   4.384835
    21  H    6.742103   5.381133   5.088619   4.384843   4.721657
    22  H    7.658053   6.936166   6.711924   5.088400   5.381127
    23  H    7.857022   6.711918   6.936624   5.381502   5.088612
    24  H    9.904093   8.660640   8.660874   7.361812   7.361782
    25  H    9.380495   7.658050   7.857023   6.967148   6.742099
    26  H    9.213485   7.856846   7.658235   6.741902   6.967100
                   16         17         18         19         20
    16  H    0.000000
    17  H    1.751519   0.000000
    18  H    3.054058   2.501939   0.000000
    19  H    2.501945   3.054143   1.751518   0.000000
    20  H    2.545661   3.090041   3.054609   2.502594   0.000000
    21  H    3.089956   2.545653   2.502561   3.054601   1.751461
    22  H    4.717343   4.380454   2.542732   3.087184   3.051365
    23  H    4.380531   4.717585   3.087550   2.542966   2.499049
    24  H    6.174892   6.174908   4.872458   4.872469   3.762673
    25  H    5.115318   5.408472   4.742783   4.405590   2.569659
    26  H    5.408659   5.115270   4.405274   4.742823   3.112982
                   21         22         23         24         25
    21  H    0.000000
    22  H    2.499133   0.000000
    23  H    3.051457   1.750340   0.000000
    24  H    3.762667   2.501004   2.500838   0.000000
    25  H    3.112545   3.066968   2.514441   1.764179   0.000000
    26  H    2.569620   2.514285   3.066969   1.764231   1.762099
                   26
    26  H    0.000000
 Symmetry turned off by external request.
 Stoichiometry    C8H18
 Framework group  C1[X(C8H18)]
 Deg. of freedom    72
 Full point group                 C1      NOp   1
 Rotational constants (GHZ):          10.7703248           0.4937932           0.4833455
 Counterpoise: doing full-system calculation.
 Standard basis: def2TZVP (5D, 7F)
   356 basis functions,   552 primitive gaussians,   396 cartesian basis functions
    33 alpha electrons       33 beta electrons
       nuclear repulsion energy       375.8446539689 Hartrees.
 NAtoms=   26 NActive=   26 NUniq=   26 SFac= 1.00D+00 NAtFMM=   60 NAOKFM=F Big=F
 Integral buffers will be    131072 words long.
 Raffenetti 2 integral format.
 Two-electron integral symmetry is turned off.
 One-electron integrals computed using PRISM.
   1 Symmetry operations used in ECPInt.
 ECPInt:  NShTT=   12880 NPrTT=   36276 LenC2=   11773 LenP2D=   25829.
 LDataN:  DoStor=T MaxTD1= 6 Len=  172
 NBasis=   356 RedAO= T EigKep=  6.71D-05  NBF=   356
 NBsUse=   356 1.00D-06 EigRej= -1.00D+00 NBFU=   356
 ExpMin= 9.52D-02 ExpMax= 1.36D+04 ExpMxC= 4.63D+02 IAcc=3 IRadAn=         5 AccDes= 0.00D+00
 Harris functional with IExCor= 1009 and IRadAn=       5 diagonalized for initial guess.
 HarFok:  IExCor= 1009 AccDes= 0.00D+00 IRadAn=         5 IDoV= 1 UseB2=F ITyADJ=14
 ICtDFT=  3500011 ScaDFX=  1.000000  1.000000  1.000000  1.000000
 FoFCou: FMM=F IPFlag=           0 FMFlag=      100000 FMFlg1=           0
         NFxFlg=           0 DoJE=T BraDBF=F KetDBF=T FulRan=T
         wScrn=  0.000000 ICntrl=       500 IOpCl=  0 I1Cent=   200000004 NGrid=           0
         NMat0=    1 NMatS0=      1 NMatT0=    0 NMatD0=    1 NMtDS0=    0 NMtDT0=    0
 Symmetry not used in FoFCou.
 Initial guess <Sx>= 0.0000 <Sy>= 0.0000 <Sz>= 0.0000 <S**2>=-0.0000 S=-0.0000
 Requested convergence on RMS density matrix=1.00D-08 within 128 cycles.
 Requested convergence on MAX density matrix=1.00D-06.
 Requested convergence on             energy=1.00D-06.
 No special actions if energy rises.
 Integral accuracy reduced to 1.0D-05 until final iterations.
 Initial convergence to 1.0D-05 achieved.  Increase integral accuracy.
 SCF Done:  E(UM062X) =  -315.646820610     A.U. after   11 cycles
            NFock= 11  Conv=0.60D-08     -V/T= 2.0055
 <Sx>= 0.0000 <Sy>= 0.0000 <Sz>= 0.0000 <S**2>=-0.0000 S=-0.0000
 <L.S>= 0.000000000000E+00
 Annihilation of the first spin contaminant:
 S**2 before annihilation    -0.0000,   after    -0.0000

 **********************************************************************

            Population analysis using the SCF Density.

 **********************************************************************

 Alpha  occ. eigenvalues --  -10.52435 -10.52435 -10.52287 -10.52264 -10.52239
 Alpha  occ. eigenvalues --  -10.52225 -10.51799 -10.51799  -0.91262  -0.88688
 Alpha  occ. eigenvalues --   -0.84534  -0.79104  -0.72963  -0.67454  -0.65709
 Alpha  occ. eigenvalues --   -0.65202  -0.55696  -0.53363  -0.50520  -0.49813
 Alpha  occ. eigenvalues --   -0.48410  -0.47818  -0.45654  -0.44660  -0.41771
 Alpha  occ. eigenvalues --   -0.41347  -0.41145  -0.39048  -0.38881  -0.38024
 Alpha  occ. eigenvalues --   -0.37837  -0.37700  -0.35414
 Alpha virt. eigenvalues --    0.06473   0.07493   0.09067   0.09485   0.09854
 Alpha virt. eigenvalues --    0.11922   0.11957   0.12480   0.14919   0.15182
 Alpha virt. eigenvalues --    0.15234   0.16213   0.16664   0.16891   0.17116
 Alpha virt. eigenvalues --    0.17329   0.18135   0.19074   0.20242   0.21537
 Alpha virt. eigenvalues --    0.21788   0.22201   0.23803   0.24616   0.25759
 Alpha virt. eigenvalues --    0.25919   0.26941   0.29074   0.31452   0.32068
 Alpha virt. eigenvalues --    0.32636   0.32672   0.33389   0.33976   0.34612
 Alpha virt. eigenvalues --    0.35579   0.35893   0.37693   0.38152   0.39965
 Alpha virt. eigenvalues --    0.41475   0.42360   0.43953   0.44057   0.46043
 Alpha virt. eigenvalues --    0.47277   0.47434   0.48499   0.49023   0.49473
 Alpha virt. eigenvalues --    0.49788   0.50631   0.50695   0.50864   0.51964
 Alpha virt. eigenvalues --    0.52635   0.53273   0.53603   0.53662   0.54633
 Alpha virt. eigenvalues --    0.55211   0.55856   0.56561   0.56844   0.58479
 Alpha virt. eigenvalues --    0.61262   0.63874   0.64282   0.65026   0.66821
 Alpha virt. eigenvalues --    0.67907   0.68412   0.71065   0.71529   0.75524
 Alpha virt. eigenvalues --    0.78086   0.83636   0.84296   0.85798   0.87295
 Alpha virt. eigenvalues --    0.87742   0.88300   0.88886   0.88909   0.89729
 Alpha virt. eigenvalues --    0.91006   0.92616   0.95562   0.95612   0.99114
 Alpha virt. eigenvalues --    1.01318   1.04592   1.04885   1.08377   1.09333
 Alpha virt. eigenvalues --    1.09562   1.11735   1.12916   1.14285   1.14740
 Alpha virt. eigenvalues --    1.15031   1.15271   1.15760   1.16143   1.16256
 Alpha virt. eigenvalues --    1.20623   1.22008   1.28112   1.29886   1.30488
 Alpha virt. eigenvalues --    1.34526   1.34904   1.36857   1.37018   1.37568
 Alpha virt. eigenvalues --    1.47253   1.52333   1.55690   1.56033   1.56747
 Alpha virt. eigenvalues --    1.57990   1.58886   1.59321   1.59712   1.59867
 Alpha virt. eigenvalues --    1.60504   1.61705   1.63197   1.63408   1.63980
 Alpha virt. eigenvalues --    1.66141   1.67038   1.67947   1.69391   1.70583
 Alpha virt. eigenvalues --    1.76483   1.77765   1.78700   1.80723   1.84848
 Alpha virt. eigenvalues --    1.86551   1.88229   1.89550   1.89721   1.89828
 Alpha virt. eigenvalues --    1.90129   1.90498   1.92324   1.92462   1.94478
 Alpha virt. eigenvalues --    1.94647   1.95363   1.97814   1.98765   1.98990
 Alpha virt. eigenvalues --    2.01606   2.04437   2.04833   2.10651   2.12616
 Alpha virt. eigenvalues --    2.13821   2.14083   2.15271   2.18423   2.24828
 Alpha virt. eigenvalues --    2.25908   2.29282   2.31404   2.31994   2.33288
 Alpha virt. eigenvalues --    2.33815   2.35699   2.35708   2.36808   2.40050
 Alpha virt. eigenvalues --    2.42579   2.42652   2.44074   2.46131   2.46217
 Alpha virt. eigenvalues --    2.47411   2.47525   2.49895   2.50807   2.54329
 Alpha virt. eigenvalues --    2.54610   2.55382   2.55550   2.56493   2.56758
 Alpha virt. eigenvalues --    2.57902   2.58984   2.60759   2.61301   2.62052
 Alpha virt. eigenvalues --    2.62454   2.63097   2.64448   2.66860   2.67339
 Alpha virt. eigenvalues --    2.68996   2.69814   2.69946   2.70898   2.72034
 Alpha virt. eigenvalues --    2.73746   2.73993   2.74051   2.75947   2.76269
 Alpha virt. eigenvalues --    2.77235   2.77663   2.78664   2.79043   2.85051
 Alpha virt. eigenvalues --    2.87103   2.89897   2.94478   3.01446   3.02466
 Alpha virt. eigenvalues --    3.04758   3.06336   3.07607   3.10204   3.11169
 Alpha virt. eigenvalues --    3.12205   3.12849   3.14667   3.19251   3.19536
 Alpha virt. eigenvalues --    3.21635   3.21733   3.21959   3.22288   3.23315
 Alpha virt. eigenvalues --    3.25543   3.25958   3.26610   3.27107   3.28891
 Alpha virt. eigenvalues --    3.32002   3.33424   3.33981   3.35012   3.38885
 Alpha virt. eigenvalues --    3.39316   3.41245   3.41401   3.41484   3.42178
 Alpha virt. eigenvalues --    3.42752   3.44816   3.46545   3.48943   3.50863
 Alpha virt. eigenvalues --    3.52298   3.53506   3.54800   3.56787   3.57683
 Alpha virt. eigenvalues --    3.58265   3.58271   3.59036   3.62220   3.62832
 Alpha virt. eigenvalues --    3.64222   3.68501   3.68599   3.72505   3.79297
 Alpha virt. eigenvalues --    3.79677   3.85176   3.88045   3.88526   3.89162
 Alpha virt. eigenvalues --    3.90031   3.90585   3.90990   3.91964   3.92438
 Alpha virt. eigenvalues --    3.94525   4.01296   4.01747   4.07371   4.08835
 Alpha virt. eigenvalues --    4.09347   4.10832   4.19020   4.22554   4.29656
 Alpha virt. eigenvalues --    4.30710   4.32670   4.37540   4.38391   4.39556
 Alpha virt. eigenvalues --    4.47514   4.48213   4.52883   4.53366   4.54834
 Alpha virt. eigenvalues --    4.55726   4.58074   4.62797   4.63292   4.63398
 Alpha virt. eigenvalues --    4.63703   4.66075   4.67081   4.68896   4.75880
 Alpha virt. eigenvalues --    4.80002   4.92004   4.99548   5.18311   5.22661
 Alpha virt. eigenvalues --   22.39557  22.43238  22.47180  22.53091  22.59499
 Alpha virt. eigenvalues --   22.60886  22.63033  22.63841
  Beta  occ. eigenvalues --  -10.52435 -10.52435 -10.52287 -10.52264 -10.52239
  Beta  occ. eigenvalues --  -10.52225 -10.51799 -10.51799  -0.91262  -0.88688
  Beta  occ. eigenvalues --   -0.84534  -0.79104  -0.72963  -0.67454  -0.65709
  Beta  occ. eigenvalues --   -0.65202  -0.55696  -0.53363  -0.50520  -0.49813
  Beta  occ. eigenvalues --   -0.48410  -0.47818  -0.45654  -0.44660  -0.41771
  Beta  occ. eigenvalues --   -0.41347  -0.41145  -0.39048  -0.38881  -0.38024
  Beta  occ. eigenvalues --   -0.37837  -0.37700  -0.35414
  Beta virt. eigenvalues --    0.06473   0.07493   0.09067   0.09485   0.09854
  Beta virt. eigenvalues --    0.11922   0.11957   0.12480   0.14919   0.15182
  Beta virt. eigenvalues --    0.15234   0.16213   0.16664   0.16891   0.17116
  Beta virt. eigenvalues --    0.17329   0.18135   0.19074   0.20242   0.21537
  Beta virt. eigenvalues --    0.21788   0.22201   0.23803   0.24616   0.25759
  Beta virt. eigenvalues --    0.25919   0.26941   0.29074   0.31452   0.32068
  Beta virt. eigenvalues --    0.32636   0.32672   0.33389   0.33976   0.34612
  Beta virt. eigenvalues --    0.35579   0.35893   0.37693   0.38152   0.39965
  Beta virt. eigenvalues --    0.41475   0.42360   0.43953   0.44057   0.46043
  Beta virt. eigenvalues --    0.47277   0.47434   0.48499   0.49023   0.49473
  Beta virt. eigenvalues --    0.49788   0.50631   0.50695   0.50864   0.51964
  Beta virt. eigenvalues --    0.52635   0.53273   0.53603   0.53662   0.54633
  Beta virt. eigenvalues --    0.55211   0.55856   0.56561   0.56844   0.58479
  Beta virt. eigenvalues --    0.61262   0.63874   0.64282   0.65026   0.66821
  Beta virt. eigenvalues --    0.67907   0.68412   0.71065   0.71529   0.75524
  Beta virt. eigenvalues --    0.78086   0.83636   0.84296   0.85798   0.87295
  Beta virt. eigenvalues --    0.87742   0.88300   0.88886   0.88909   0.89729
  Beta virt. eigenvalues --    0.91006   0.92616   0.95562   0.95612   0.99114
  Beta virt. eigenvalues --    1.01318   1.04592   1.04885   1.08377   1.09333
  Beta virt. eigenvalues --    1.09562   1.11735   1.12916   1.14285   1.14740
  Beta virt. eigenvalues --    1.15031   1.15271   1.15760   1.16143   1.16256
  Beta virt. eigenvalues --    1.20623   1.22008   1.28112   1.29886   1.30488
  Beta virt. eigenvalues --    1.34526   1.34904   1.36857   1.37018   1.37568
  Beta virt. eigenvalues --    1.47253   1.52333   1.55690   1.56033   1.56747
  Beta virt. eigenvalues --    1.57990   1.58886   1.59321   1.59712   1.59867
  Beta virt. eigenvalues --    1.60504   1.61705   1.63197   1.63408   1.63980
  Beta virt. eigenvalues --    1.66141   1.67038   1.67947   1.69391   1.70583
  Beta virt. eigenvalues --    1.76483   1.77765   1.78700   1.80723   1.84848
  Beta virt. eigenvalues --    1.86551   1.88229   1.89550   1.89721   1.89828
  Beta virt. eigenvalues --    1.90129   1.90498   1.92324   1.92462   1.94478
  Beta virt. eigenvalues --    1.94647   1.95363   1.97814   1.98765   1.98990
  Beta virt. eigenvalues --    2.01606   2.04437   2.04833   2.10651   2.12616
  Beta virt. eigenvalues --    2.13821   2.14083   2.15271   2.18423   2.24828
  Beta virt. eigenvalues --    2.25908   2.29282   2.31404   2.31994   2.33288
  Beta virt. eigenvalues --    2.33815   2.35699   2.35708   2.36808   2.40050
  Beta virt. eigenvalues --    2.42579   2.42652   2.44074   2.46131   2.46217
  Beta virt. eigenvalues --    2.47411   2.47525   2.49895   2.50807   2.54329
  Beta virt. eigenvalues --    2.54610   2.55382   2.55550   2.56493   2.56758
  Beta virt. eigenvalues --    2.57902   2.58984   2.60759   2.61301   2.62052
  Beta virt. eigenvalues --    2.62454   2.63097   2.64448   2.66860   2.67339
  Beta virt. eigenvalues --    2.68996   2.69814   2.69946   2.70898   2.72034
  Beta virt. eigenvalues --    2.73746   2.73993   2.74051   2.75947   2.76269
  Beta virt. eigenvalues --    2.77235   2.77663   2.78664   2.79043   2.85051
  Beta virt. eigenvalues --    2.87103   2.89897   2.94478   3.01446   3.02466
  Beta virt. eigenvalues --    3.04758   3.06336   3.07607   3.10204   3.11169
  Beta virt. eigenvalues --    3.12205   3.12849   3.14667   3.19251   3.19536
  Beta virt. eigenvalues --    3.21635   3.21733   3.21959   3.22288   3.23315
  Beta virt. eigenvalues --    3.25543   3.25958   3.26610   3.27107   3.28891
  Beta virt. eigenvalues --    3.32002   3.33424   3.33981   3.35012   3.38885
  Beta virt. eigenvalues --    3.39316   3.41245   3.41401   3.41484   3.42178
  Beta virt. eigenvalues --    3.42752   3.44816   3.46545   3.48943   3.50863
  Beta virt. eigenvalues --    3.52298   3.53506   3.54800   3.56787   3.57683
  Beta virt. eigenvalues --    3.58265   3.58271   3.59036   3.62220   3.62832
  Beta virt. eigenvalues --    3.64222   3.68501   3.68599   3.72505   3.79297
  Beta virt. eigenvalues --    3.79677   3.85176   3.88045   3.88526   3.89162
  Beta virt. eigenvalues --    3.90031   3.90585   3.90990   3.91964   3.92438
  Beta virt. eigenvalues --    3.94525   4.01296   4.01747   4.07371   4.08835
  Beta virt. eigenvalues --    4.09347   4.10832   4.19020   4.22554   4.29656
  Beta virt. eigenvalues --    4.30710   4.32670   4.37540   4.38391   4.39556
  Beta virt. eigenvalues --    4.47514   4.48213   4.52883   4.53366   4.54834
  Beta virt. eigenvalues --    4.55726   4.58074   4.62797   4.63292   4.63398
  Beta virt. eigenvalues --    4.63703   4.66075   4.67081   4.68896   4.75880
  Beta virt. eigenvalues --    4.80002   4.92004   4.99548   5.18311   5.22661
  Beta virt. eigenvalues --   22.39557  22.43238  22.47180  22.53091  22.59499
  Beta virt. eigenvalues --   22.60886  22.63033  22.63841
          Condensed to atoms (all electrons):
               1          2          3          4          5          6
     1  C    5.031510   0.270711  -0.059347   0.013485  -0.001153   0.000062
     2  C    0.270711   5.126396   0.240868  -0.045004   0.011217  -0.000946
     3  C   -0.059347   0.240868   5.255392   0.215560  -0.035706   0.010773
     4  C    0.013485  -0.045004   0.215560   5.234934   0.211625  -0.035706
     5  C   -0.001153   0.011217  -0.035706   0.211625   5.234934   0.215560
     6  C    0.000062  -0.000946   0.010773  -0.035706   0.215560   5.255392
     7  C   -0.000002   0.000045  -0.000946   0.011217  -0.045004   0.240868
     8  C    0.000000  -0.000002   0.000062  -0.001153   0.013485  -0.059347
     9  H    0.425369  -0.055126   0.014544  -0.001078   0.000056  -0.000002
    10  H    0.415986  -0.041456  -0.007237  -0.000200  -0.000038   0.000001
    11  H    0.415984  -0.041461  -0.007234  -0.000198  -0.000038   0.000001
    12  H   -0.039828   0.430212  -0.051759  -0.003934  -0.000438   0.000006
    13  H   -0.039818   0.430196  -0.051728  -0.003949  -0.000438   0.000006
    14  H   -0.003495  -0.042371   0.425513  -0.042779  -0.005008   0.000039
    15  H   -0.003487  -0.042381   0.425546  -0.042823  -0.005001   0.000038
    16  H   -0.000067  -0.003458  -0.046572   0.435188  -0.047036  -0.003024
    17  H   -0.000067  -0.003451  -0.046569   0.435172  -0.047028  -0.003027
    18  H    0.000005  -0.000119  -0.003024  -0.047035   0.435187  -0.046572
    19  H    0.000005  -0.000119  -0.003027  -0.047029   0.435173  -0.046570
    20  H    0.000001  -0.000006   0.000039  -0.005008  -0.042780   0.425513
    21  H    0.000001  -0.000006   0.000038  -0.005001  -0.042823   0.425546
    22  H    0.000000   0.000000   0.000006  -0.000438  -0.003933  -0.051759
    23  H    0.000000   0.000000   0.000006  -0.000438  -0.003949  -0.051728
    24  H   -0.000000   0.000000  -0.000002   0.000056  -0.001078   0.014544
    25  H   -0.000000  -0.000000   0.000001  -0.000038  -0.000198  -0.007234
    26  H   -0.000000  -0.000000   0.000001  -0.000038  -0.000200  -0.007237
               7          8          9         10         11         12
     1  C   -0.000002   0.000000   0.425369   0.415986   0.415984  -0.039828
     2  C    0.000045  -0.000002  -0.055126  -0.041456  -0.041461   0.430212
     3  C   -0.000946   0.000062   0.014544  -0.007237  -0.007234  -0.051759
     4  C    0.011217  -0.001153  -0.001078  -0.000200  -0.000198  -0.003934
     5  C   -0.045004   0.013485   0.000056  -0.000038  -0.000038  -0.000438
     6  C    0.240868  -0.059347  -0.000002   0.000001   0.000001   0.000006
     7  C    5.126396   0.270711   0.000000  -0.000000  -0.000000   0.000000
     8  C    0.270711   5.031510  -0.000000  -0.000000  -0.000000   0.000000
     9  H    0.000000  -0.000000   0.534234  -0.024843  -0.024856  -0.004160
    10  H   -0.000000  -0.000000  -0.024843   0.550415  -0.032243  -0.005974
    11  H   -0.000000  -0.000000  -0.024856  -0.032243   0.550428   0.007796
    12  H    0.000000   0.000000  -0.004160  -0.005974   0.007796   0.569828
    13  H    0.000000   0.000000  -0.004161   0.007795  -0.005970  -0.034129
    14  H   -0.000006   0.000001  -0.000129   0.000345   0.002350   0.007651
    15  H   -0.000006   0.000001  -0.000128   0.002350   0.000344  -0.005414
    16  H   -0.000119   0.000005   0.000007   0.000165  -0.000076   0.000734
    17  H   -0.000119   0.000005   0.000007  -0.000076   0.000165   0.000980
    18  H   -0.003458  -0.000067   0.000000   0.000015  -0.000029  -0.000112
    19  H   -0.003451  -0.000067   0.000000  -0.000029   0.000015   0.000246
    20  H   -0.042371  -0.003495   0.000000   0.000000  -0.000000  -0.000038
    21  H   -0.042381  -0.003487   0.000000  -0.000000   0.000000   0.000019
    22  H    0.430212  -0.039828   0.000000  -0.000000  -0.000000  -0.000000
    23  H    0.430196  -0.039818   0.000000  -0.000000  -0.000000   0.000000
    24  H   -0.055126   0.425369   0.000000   0.000000   0.000000   0.000000
    25  H   -0.041461   0.415984   0.000000  -0.000000  -0.000000  -0.000000
    26  H   -0.041457   0.415987   0.000000  -0.000000  -0.000000  -0.000000
              13         14         15         16         17         18
     1  C   -0.039818  -0.003495  -0.003487  -0.000067  -0.000067   0.000005
     2  C    0.430196  -0.042371  -0.042381  -0.003458  -0.003451  -0.000119
     3  C   -0.051728   0.425513   0.425546  -0.046572  -0.046569  -0.003024
     4  C   -0.003949  -0.042779  -0.042823   0.435188   0.435172  -0.047035
     5  C   -0.000438  -0.005008  -0.005001  -0.047036  -0.047028   0.435187
     6  C    0.000006   0.000039   0.000038  -0.003024  -0.003027  -0.046572
     7  C    0.000000  -0.000006  -0.000006  -0.000119  -0.000119  -0.003458
     8  C    0.000000   0.000001   0.000001   0.000005   0.000005  -0.000067
     9  H   -0.004161  -0.000129  -0.000128   0.000007   0.000007   0.000000
    10  H    0.007795   0.000345   0.002350   0.000165  -0.000076   0.000015
    11  H   -0.005970   0.002350   0.000344  -0.000076   0.000165  -0.000029
    12  H   -0.034129   0.007651  -0.005414   0.000734   0.000980  -0.000112
    13  H    0.569812  -0.005417   0.007650   0.000981   0.000735   0.000246
    14  H   -0.005417   0.557030  -0.031941   0.006509  -0.003803  -0.000371
    15  H    0.007650  -0.031941   0.557037  -0.003802   0.006510   0.001648
    16  H    0.000981   0.006509  -0.003802   0.547464  -0.029022   0.006194
    17  H    0.000735  -0.003803   0.006510  -0.029022   0.547466  -0.002970
    18  H    0.000246  -0.000371   0.001648   0.006194  -0.002970   0.547464
    19  H   -0.000112   0.001648  -0.000372  -0.002970   0.006193  -0.029022
    20  H    0.000019  -0.000128   0.000264  -0.000371   0.001648   0.006509
    21  H   -0.000038   0.000264  -0.000128   0.001648  -0.000372  -0.003802
    22  H    0.000000  -0.000038   0.000019  -0.000112   0.000246   0.000734
    23  H   -0.000000   0.000019  -0.000038   0.000246  -0.000112   0.000981
    24  H    0.000000   0.000000   0.000000   0.000000   0.000000   0.000007
    25  H   -0.000000  -0.000000   0.000000  -0.000029   0.000015  -0.000076
    26  H   -0.000000   0.000000  -0.000000   0.000015  -0.000029   0.000165
              19         20         21         22         23         24
     1  C    0.000005   0.000001   0.000001   0.000000   0.000000  -0.000000
     2  C   -0.000119  -0.000006  -0.000006   0.000000   0.000000   0.000000
     3  C   -0.003027   0.000039   0.000038   0.000006   0.000006  -0.000002
     4  C   -0.047029  -0.005008  -0.005001  -0.000438  -0.000438   0.000056
     5  C    0.435173  -0.042780  -0.042823  -0.003933  -0.003949  -0.001078
     6  C   -0.046570   0.425513   0.425546  -0.051759  -0.051728   0.014544
     7  C   -0.003451  -0.042371  -0.042381   0.430212   0.430196  -0.055126
     8  C   -0.000067  -0.003495  -0.003487  -0.039828  -0.039818   0.425369
     9  H    0.000000   0.000000   0.000000   0.000000   0.000000   0.000000
    10  H   -0.000029   0.000000  -0.000000  -0.000000  -0.000000   0.000000
    11  H    0.000015  -0.000000   0.000000  -0.000000  -0.000000   0.000000
    12  H    0.000246  -0.000038   0.000019  -0.000000   0.000000   0.000000
    13  H   -0.000112   0.000019  -0.000038   0.000000  -0.000000   0.000000
    14  H    0.001648  -0.000128   0.000264  -0.000038   0.000019   0.000000
    15  H   -0.000372   0.000264  -0.000128   0.000019  -0.000038   0.000000
    16  H   -0.002970  -0.000371   0.001648  -0.000112   0.000246   0.000000
    17  H    0.006193   0.001648  -0.000372   0.000246  -0.000112   0.000000
    18  H   -0.029022   0.006509  -0.003802   0.000734   0.000981   0.000007
    19  H    0.547466  -0.003803   0.006510   0.000980   0.000735   0.000007
    20  H   -0.003803   0.557031  -0.031941   0.007651  -0.005417  -0.000129
    21  H    0.006510  -0.031941   0.557037  -0.005414   0.007650  -0.000128
    22  H    0.000980   0.007651  -0.005414   0.569828  -0.034129  -0.004160
    23  H    0.000735  -0.005417   0.007650  -0.034129   0.569812  -0.004161
    24  H    0.000007  -0.000129  -0.000128  -0.004160  -0.004161   0.534234
    25  H    0.000165   0.002350   0.000344   0.007796  -0.005970  -0.024856
    26  H   -0.000076   0.000345   0.002350  -0.005974   0.007795  -0.024843
              25         26
     1  C   -0.000000  -0.000000
     2  C   -0.000000  -0.000000
     3  C    0.000001   0.000001
     4  C   -0.000038  -0.000038
     5  C   -0.000198  -0.000200
     6  C   -0.007234  -0.007237
     7  C   -0.041461  -0.041457
     8  C    0.415984   0.415987
     9  H    0.000000   0.000000
    10  H   -0.000000  -0.000000
    11  H   -0.000000  -0.000000
    12  H   -0.000000  -0.000000
    13  H   -0.000000  -0.000000
    14  H   -0.000000   0.000000
    15  H    0.000000  -0.000000
    16  H   -0.000029   0.000015
    17  H    0.000015  -0.000029
    18  H   -0.000076   0.000165
    19  H    0.000165  -0.000076
    20  H    0.002350   0.000345
    21  H    0.000344   0.002350
    22  H    0.007796  -0.005974
    23  H   -0.005970   0.007795
    24  H   -0.024856  -0.024843
    25  H    0.550428  -0.032243
    26  H   -0.032243   0.550415
          Atomic-Atomic Spin Densities.
               1          2          3          4          5          6
     1  C    0.000000   0.000000  -0.000000  -0.000000   0.000000   0.000000
     2  C    0.000000  -0.000000   0.000000  -0.000000  -0.000000  -0.000000
     3  C   -0.000000   0.000000  -0.000000   0.000000   0.000000   0.000000
     4  C   -0.000000  -0.000000   0.000000  -0.000000  -0.000000  -0.000000
     5  C    0.000000  -0.000000   0.000000  -0.000000   0.000000  -0.000000
     6  C    0.000000  -0.000000   0.000000  -0.000000  -0.000000   0.000000
     7  C   -0.000000   0.000000  -0.000000   0.000000   0.000000  -0.000000
     8  C    0.000000  -0.000000   0.000000  -0.000000   0.000000  -0.000000
     9  H   -0.000000   0.000000  -0.000000   0.000000  -0.000000  -0.000000
    10  H   -0.000000  -0.000000   0.000000  -0.000000   0.000000  -0.000000
    11  H   -0.000000   0.000000   0.000000   0.000000  -0.000000   0.000000
    12  H   -0.000000   0.000000  -0.000000   0.000000  -0.000000   0.000000
    13  H   -0.000000   0.000000  -0.000000  -0.000000   0.000000  -0.000000
    14  H   -0.000000   0.000000   0.000000  -0.000000   0.000000  -0.000000
    15  H   -0.000000   0.000000  -0.000000   0.000000   0.000000   0.000000
    16  H   -0.000000   0.000000   0.000000  -0.000000   0.000000  -0.000000
    17  H   -0.000000   0.000000  -0.000000   0.000000  -0.000000   0.000000
    18  H   -0.000000   0.000000   0.000000  -0.000000   0.000000  -0.000000
    19  H    0.000000  -0.000000   0.000000  -0.000000  -0.000000   0.000000
    20  H   -0.000000   0.000000   0.000000  -0.000000   0.000000   0.000000
    21  H    0.000000   0.000000  -0.000000   0.000000  -0.000000   0.000000
    22  H    0.000000  -0.000000   0.000000  -0.000000  -0.000000   0.000000
    23  H   -0.000000   0.000000   0.000000  -0.000000   0.000000  -0.000000
    24  H   -0.000000   0.000000   0.000000  -0.000000   0.000000  -0.000000
    25  H    0.000000  -0.000000   0.000000   0.000000  -0.000000   0.000000
    26  H    0.000000   0.000000   0.000000   0.000000   0.000000   0.000000
               7          8          9         10         11         12
     1  C   -0.000000   0.000000  -0.000000  -0.000000  -0.000000  -0.000000
     2  C    0.000000  -0.000000   0.000000  -0.000000   0.000000   0.000000
     3  C   -0.000000   0.000000  -0.000000   0.000000   0.000000  -0.000000
     4  C    0.000000  -0.000000   0.000000  -0.000000   0.000000   0.000000
     5  C    0.000000   0.000000  -0.000000   0.000000  -0.000000  -0.000000
     6  C   -0.000000  -0.000000  -0.000000  -0.000000   0.000000   0.000000
     7  C   -0.000000   0.000000   0.000000   0.000000  -0.000000  -0.000000
     8  C    0.000000  -0.000000  -0.000000  -0.000000   0.000000   0.000000
     9  H    0.000000  -0.000000   0.000000   0.000000  -0.000000  -0.000000
    10  H    0.000000  -0.000000   0.000000   0.000000   0.000000  -0.000000
    11  H   -0.000000   0.000000  -0.000000   0.000000   0.000000  -0.000000
    12  H   -0.000000   0.000000  -0.000000  -0.000000  -0.000000  -0.000000
    13  H    0.000000  -0.000000  -0.000000   0.000000   0.000000  -0.000000
    14  H    0.000000  -0.000000   0.000000  -0.000000   0.000000  -0.000000
    15  H   -0.000000   0.000000   0.000000   0.000000   0.000000   0.000000
    16  H    0.000000  -0.000000  -0.000000   0.000000   0.000000  -0.000000
    17  H   -0.000000   0.000000  -0.000000   0.000000   0.000000  -0.000000
    18  H   -0.000000   0.000000   0.000000   0.000000   0.000000  -0.000000
    19  H   -0.000000   0.000000  -0.000000  -0.000000   0.000000   0.000000
    20  H   -0.000000   0.000000   0.000000   0.000000  -0.000000  -0.000000
    21  H   -0.000000  -0.000000   0.000000  -0.000000  -0.000000  -0.000000
    22  H   -0.000000   0.000000  -0.000000   0.000000  -0.000000  -0.000000
    23  H    0.000000  -0.000000   0.000000  -0.000000   0.000000  -0.000000
    24  H    0.000000  -0.000000   0.000000  -0.000000   0.000000   0.000000
    25  H   -0.000000   0.000000  -0.000000  -0.000000  -0.000000   0.000000
    26  H   -0.000000   0.000000   0.000000   0.000000  -0.000000  -0.000000
              13         14         15         16         17         18
     1  C   -0.000000  -0.000000  -0.000000  -0.000000  -0.000000  -0.000000
     2  C    0.000000   0.000000   0.000000   0.000000   0.000000   0.000000
     3  C   -0.000000   0.000000  -0.000000   0.000000  -0.000000   0.000000
     4  C   -0.000000  -0.000000   0.000000  -0.000000   0.000000  -0.000000
     5  C    0.000000   0.000000   0.000000   0.000000  -0.000000   0.000000
     6  C   -0.000000  -0.000000   0.000000  -0.000000   0.000000  -0.000000
     7  C    0.000000   0.000000  -0.000000   0.000000  -0.000000  -0.000000
     8  C   -0.000000  -0.000000   0.000000  -0.000000   0.000000   0.000000
     9  H   -0.000000   0.000000   0.000000  -0.000000  -0.000000   0.000000
    10  H    0.000000  -0.000000   0.000000   0.000000   0.000000   0.000000
    11  H    0.000000   0.000000   0.000000   0.000000   0.000000   0.000000
    12  H   -0.000000  -0.000000   0.000000  -0.000000  -0.000000  -0.000000
    13  H   -0.000000  -0.000000  -0.000000  -0.000000   0.000000  -0.000000
    14  H   -0.000000   0.000000  -0.000000   0.000000  -0.000000  -0.000000
    15  H   -0.000000  -0.000000   0.000000  -0.000000   0.000000  -0.000000
    16  H   -0.000000   0.000000  -0.000000   0.000000  -0.000000   0.000000
    17  H    0.000000  -0.000000   0.000000  -0.000000   0.000000   0.000000
    18  H   -0.000000  -0.000000  -0.000000   0.000000   0.000000  -0.000000
    19  H    0.000000  -0.000000  -0.000000   0.000000   0.000000   0.000000
    20  H   -0.000000   0.000000  -0.000000   0.000000   0.000000  -0.000000
    21  H    0.000000  -0.000000  -0.000000   0.000000  -0.000000   0.000000
    22  H   -0.000000   0.000000   0.000000   0.000000   0.000000   0.000000
    23  H   -0.000000  -0.000000   0.000000  -0.000000  -0.000000   0.000000
    24  H    0.000000  -0.000000   0.000000   0.000000   0.000000  -0.000000
    25  H    0.000000   0.000000  -0.000000   0.000000   0.000000  -0.000000
    26  H    0.000000  -0.000000   0.000000  -0.000000  -0.000000   0.000000
              19         20         21         22         23         24
     1  C    0.000000  -0.000000   0.000000   0.000000  -0.000000  -0.000000
     2  C   -0.000000   0.000000   0.000000  -0.000000   0.000000   0.000000
     3  C    0.000000   0.000000  -0.000000   0.000000   0.000000   0.000000
     4  C   -0.000000  -0.000000   0.000000  -0.000000  -0.000000  -0.000000
     5  C   -0.000000   0.000000  -0.000000  -0.000000   0.000000   0.000000
     6  C    0.000000   0.000000   0.000000   0.000000  -0.000000  -0.000000
     7  C   -0.000000  -0.000000  -0.000000  -0.000000   0.000000   0.000000
     8  C    0.000000   0.000000  -0.000000   0.000000  -0.000000  -0.000000
     9  H   -0.000000   0.000000   0.000000  -0.000000   0.000000   0.000000
    10  H   -0.000000   0.000000  -0.000000   0.000000  -0.000000  -0.000000
    11  H    0.000000  -0.000000  -0.000000  -0.000000   0.000000   0.000000
    12  H    0.000000  -0.000000  -0.000000  -0.000000  -0.000000   0.000000
    13  H    0.000000  -0.000000   0.000000  -0.000000  -0.000000   0.000000
    14  H   -0.000000   0.000000  -0.000000   0.000000  -0.000000  -0.000000
    15  H   -0.000000  -0.000000  -0.000000   0.000000   0.000000   0.000000
    16  H    0.000000   0.000000   0.000000   0.000000  -0.000000   0.000000
    17  H    0.000000   0.000000  -0.000000   0.000000  -0.000000   0.000000
    18  H    0.000000  -0.000000   0.000000   0.000000   0.000000  -0.000000
    19  H   -0.000000  -0.000000  -0.000000   0.000000  -0.000000  -0.000000
    20  H   -0.000000  -0.000000  -0.000000  -0.000000   0.000000  -0.000000
    21  H   -0.000000  -0.000000  -0.000000  -0.000000  -0.000000  -0.000000
    22  H    0.000000  -0.000000  -0.000000   0.000000   0.000000  -0.000000
    23  H   -0.000000   0.000000  -0.000000   0.000000   0.000000  -0.000000
    24  H   -0.000000  -0.000000  -0.000000  -0.000000  -0.000000   0.000000
    25  H    0.000000  -0.000000   0.000000  -0.000000   0.000000   0.000000
    26  H   -0.000000   0.000000   0.000000   0.000000   0.000000   0.000000
              25         26
     1  C    0.000000   0.000000
     2  C   -0.000000   0.000000
     3  C    0.000000   0.000000
     4  C    0.000000   0.000000
     5  C   -0.000000   0.000000
     6  C    0.000000   0.000000
     7  C   -0.000000  -0.000000
     8  C    0.000000   0.000000
     9  H   -0.000000   0.000000
    10  H   -0.000000   0.000000
    11  H   -0.000000  -0.000000
    12  H    0.000000  -0.000000
    13  H    0.000000   0.000000
    14  H    0.000000  -0.000000
    15  H   -0.000000   0.000000
    16  H    0.000000  -0.000000
    17  H    0.000000  -0.000000
    18  H   -0.000000   0.000000
    19  H    0.000000  -0.000000
    20  H   -0.000000   0.000000
    21  H    0.000000   0.000000
    22  H   -0.000000   0.000000
    23  H    0.000000   0.000000
    24  H    0.000000   0.000000
    25  H   -0.000000  -0.000000
    26  H   -0.000000  -0.000000
 Mulliken charges and spin densities:
               1          2
     1  C   -0.425855   0.000000
     2  C   -0.233739   0.000000
     3  C   -0.275196  -0.000000
     4  C   -0.275386  -0.000000
     5  C   -0.275386   0.000000
     6  C   -0.275196   0.000000
     7  C   -0.233740  -0.000000
     8  C   -0.425855   0.000000
     9  H    0.140266  -0.000000
    10  H    0.135023  -0.000000
    11  H    0.135020  -0.000000
    12  H    0.128312  -0.000000
    13  H    0.128320  -0.000000
    14  H    0.134117  -0.000000
    15  H    0.134115   0.000000
    16  H    0.137501   0.000000
    17  H    0.137502   0.000000
    18  H    0.137501  -0.000000
    19  H    0.137502  -0.000000
    20  H    0.134117  -0.000000
    21  H    0.134115  -0.000000
    22  H    0.128312   0.000000
    23  H    0.128320  -0.000000
    24  H    0.140266   0.000000
    25  H    0.135020  -0.000000
    26  H    0.135023  -0.000000
 Sum of Mulliken charges =  -0.00000  -0.00000
 Mulliken charges and spin densities with hydrogens summed into heavy atoms:
               1          2
     1  C   -0.015545   0.000000
     2  C    0.022892   0.000000
     3  C   -0.006964  -0.000000
     4  C   -0.000382  -0.000000
     5  C   -0.000382   0.000000
     6  C   -0.006965   0.000000
     7  C    0.022892  -0.000000
     8  C   -0.015545   0.000000
         Mulliken charges and spin densities condensed to fragments:
      1      0.000000     -0.000000
      2     -0.000000      0.000000
 Electronic spatial extent (au):  <R**2>=           2412.3019
 Charge=             -0.0000 electrons
 Dipole moment (field-independent basis, Debye):
    X=             -0.0000    Y=              0.0000    Z=              0.0000  Tot=              0.0000
 Quadrupole moment (field-independent basis, Debye-Ang):
   XX=            -56.8965   YY=            -56.2810   ZZ=            -54.6119
   XY=              0.5983   XZ=             -0.8755   YZ=              0.2358
 Traceless Quadrupole moment (field-independent basis, Debye-Ang):
   XX=             -0.9667   YY=             -0.3512   ZZ=              1.3179
   XY=              0.5983   XZ=             -0.8755   YZ=              0.2358
 Octapole moment (field-independent basis, Debye-Ang**2):
  XXX=             -0.0854  YYY=             -0.0065  ZZZ=             -0.0126  XYY=             -0.0281
  XXY=             -0.0016  XXZ=             -0.0052  XZZ=             -0.0274  YZZ=             -0.0021
  YYZ=             -0.0043  XYZ=              0.0001
 Hexadecapole moment (field-independent basis, Debye-Ang**3):
 XXXX=          -2855.3577 YYYY=           -207.8793 ZZZZ=           -412.9962 XXXY=            -45.7546
 XXXZ=           -471.2021 YYYX=            -70.5580 YYYZ=            -22.4613 ZZZX=           -446.1586
 ZZZY=            -25.0469 XXYY=           -499.4806 XXZZ=           -540.4470 YYZZ=            -98.7561
 XXYZ=              2.9705 YYXZ=           -150.5898 ZZXY=            -22.8405
 N-N= 3.758446539689D+02 E-N=-1.481451198921D+03  KE= 3.139179672911D+02
                          Isotropic Fermi Contact Couplings
        Atom                 a.u.       MegaHertz       Gauss      10(-4) cm-1
     1  C(13)             -0.00000      -0.00000      -0.00000      -0.00000
     2  C(13)             -0.00000      -0.00000      -0.00000      -0.00000
     3  C(13)             -0.00000      -0.00000      -0.00000      -0.00000
     4  C(13)             -0.00000      -0.00000      -0.00000      -0.00000
     5  C(13)             -0.00000      -0.00000      -0.00000      -0.00000
     6  C(13)              0.00000       0.00000       0.00000       0.00000
     7  C(13)              0.00000       0.00000       0.00000       0.00000
     8  C(13)             -0.00000      -0.00000      -0.00000      -0.00000
     9  H(1)               0.00000       0.00000       0.00000       0.00000
    10  H(1)               0.00000       0.00000       0.00000       0.00000
    11  H(1)               0.00000       0.00000       0.00000       0.00000
    12  H(1)               0.00000       0.00000       0.00000       0.00000
    13  H(1)               0.00000       0.00000       0.00000       0.00000
    14  H(1)               0.00000       0.00000       0.00000       0.00000
    15  H(1)               0.00000       0.00000       0.00000       0.00000
    16  H(1)              -0.00000      -0.00000      -0.00000      -0.00000
    17  H(1)              -0.00000      -0.00000      -0.00000      -0.00000
    18  H(1)               0.00000       0.00000       0.00000       0.00000
    19  H(1)               0.00000       0.00000       0.00000       0.00000
    20  H(1)               0.00000       0.00000       0.00000       0.00000
    21  H(1)              -0.00000      -0.00000      -0.00000      -0.00000
    22  H(1)              -0.00000      -0.00000      -0.00000      -0.00000
    23  H(1)              -0.00000      -0.00000      -0.00000      -0.00000
    24  H(1)              -0.00000      -0.00000      -0.00000      -0.00000
    25  H(1)               0.00000       0.00000       0.00000       0.00000
    26  H(1)              -0.00000      -0.00000      -0.00000      -0.00000
 --------------------------------------------------------
       Center         ----  Spin Dipole Couplings  ----
                      3XX-RR        3YY-RR        3ZZ-RR
 --------------------------------------------------------
     1   Atom       -0.000000      0.000000     -0.000000
     2   Atom       -0.000000      0.000000      0.000000
     3   Atom        0.000000     -0.000000     -0.000000
     4   Atom        0.000000     -0.000000      0.000000
     5   Atom        0.000000     -0.000000     -0.000000
     6   Atom       -0.000000      0.000000      0.000000
     7   Atom        0.000000     -0.000000     -0.000000
     8   Atom       -0.000000      0.000000      0.000000
     9   Atom        0.000000     -0.000000      0.000000
    10   Atom        0.000000      0.000000     -0.000000
    11   Atom        0.000000      0.000000     -0.000000
    12   Atom        0.000000     -0.000000     -0.000000
    13   Atom        0.000000      0.000000     -0.000000
    14   Atom       -0.000000      0.000000     -0.000000
    15   Atom        0.000000     -0.000000     -0.000000
    16   Atom        0.000000     -0.000000      0.000000
    17   Atom       -0.000000     -0.000000      0.000000
    18   Atom        0.000000     -0.000000      0.000000
    19   Atom        0.000000      0.000000     -0.000000
    20   Atom       -0.000000     -0.000000      0.000000
    21   Atom        0.000000      0.000000     -0.000000
    22   Atom        0.000000     -0.000000     -0.000000
    23   Atom       -0.000000     -0.000000      0.000000
    24   Atom        0.000000     -0.000000      0.000000
    25   Atom       -0.000000      0.000000     -0.000000
    26   Atom       -0.000000      0.000000      0.000000
 --------------------------------------------------------
                        XY            XZ            YZ
 --------------------------------------------------------
     1   Atom        0.000000     -0.000000      0.000000
     2   Atom       -0.000000      0.000000      0.000000
     3   Atom       -0.000000      0.000000      0.000000
     4   Atom        0.000000      0.000000      0.000000
     5   Atom        0.000000      0.000000     -0.000000
     6   Atom        0.000000      0.000000     -0.000000
     7   Atom        0.000000      0.000000     -0.000000
     8   Atom       -0.000000     -0.000000     -0.000000
     9   Atom       -0.000000      0.000000      0.000000
    10   Atom       -0.000000      0.000000      0.000000
    11   Atom       -0.000000      0.000000     -0.000000
    12   Atom       -0.000000      0.000000     -0.000000
    13   Atom       -0.000000      0.000000      0.000000
    14   Atom        0.000000      0.000000     -0.000000
    15   Atom        0.000000     -0.000000      0.000000
    16   Atom        0.000000     -0.000000      0.000000
    17   Atom       -0.000000      0.000000     -0.000000
    18   Atom       -0.000000     -0.000000     -0.000000
    19   Atom       -0.000000     -0.000000      0.000000
    20   Atom        0.000000      0.000000     -0.000000
    21   Atom        0.000000     -0.000000      0.000000
    22   Atom        0.000000     -0.000000     -0.000000
    23   Atom       -0.000000      0.000000     -0.000000
    24   Atom       -0.000000      0.000000     -0.000000
    25   Atom       -0.000000     -0.000000      0.000000
    26   Atom       -0.000000      0.000000      0.000000
 --------------------------------------------------------


 ---------------------------------------------------------------------------------
              Anisotropic Spin Dipole Couplings in Principal Axis System
 ---------------------------------------------------------------------------------

       Atom             a.u.   MegaHertz   Gauss  10(-4) cm-1        Axes

              Baa    -0.0000    -0.000    -0.000    -0.000  0.6788 -0.1325  0.7223
     1 C(13)  Bbb    -0.0000    -0.000    -0.000    -0.000  0.7197 -0.0751 -0.6902
              Bcc     0.0000     0.000     0.000     0.000  0.1457  0.9883  0.0444
 
              Baa    -0.0000    -0.000    -0.000    -0.000  0.8138  0.0966 -0.5731
     2 C(13)  Bbb     0.0000     0.000     0.000     0.000 -0.4352  0.7549 -0.4906
              Bcc     0.0000     0.000     0.000     0.000  0.3852  0.6487  0.6564
 
              Baa    -0.0000    -0.000    -0.000    -0.000 -0.1346 -0.5477  0.8258
     3 C(13)  Bbb     0.0000     0.000     0.000     0.000  0.2685  0.7820  0.5625
              Bcc     0.0000     0.000     0.000     0.000  0.9538 -0.2975 -0.0418
 
              Baa    -0.0000    -0.000    -0.000    -0.000 -0.5405  0.8411  0.0206
     4 C(13)  Bbb     0.0000     0.000     0.000     0.000 -0.0192 -0.0369  0.9991
              Bcc     0.0000     0.000     0.000     0.000  0.8412  0.5396  0.0361
 
              Baa    -0.0000    -0.000    -0.000    -0.000 -0.0365  0.0406  0.9985
     5 C(13)  Bbb    -0.0000    -0.000    -0.000    -0.000 -0.0494  0.9979 -0.0424
              Bcc     0.0000     0.000     0.000     0.000  0.9981  0.0508  0.0344
 
              Baa    -0.0000    -0.000    -0.000    -0.000  0.8200 -0.4342 -0.3730
     6 C(13)  Bbb     0.0000     0.000     0.000     0.000  0.2993 -0.2303  0.9259
              Bcc     0.0000     0.000     0.000     0.000  0.4879  0.8709  0.0589
 
              Baa    -0.0000    -0.000    -0.000    -0.000 -0.1794  0.7634  0.6206
     7 C(13)  Bbb     0.0000     0.000     0.000     0.000  0.0007 -0.6307  0.7760
              Bcc     0.0000     0.000     0.000     0.000  0.9838  0.1396  0.1126
 
              Baa    -0.0000    -0.000    -0.000    -0.000  0.9332  0.2681  0.2392
     8 C(13)  Bbb     0.0000     0.000     0.000     0.000 -0.2724  0.0936  0.9576
              Bcc     0.0000     0.000     0.000     0.000 -0.2344  0.9588 -0.1604
 
              Baa    -0.0000    -0.000    -0.000    -0.000  0.3055  0.9389 -0.1583
     9 H(1)   Bbb    -0.0000    -0.000    -0.000    -0.000 -0.3344  0.2615  0.9054
              Bcc     0.0000     0.000     0.000     0.000  0.8915 -0.2237  0.3938
 
              Baa    -0.0000    -0.000    -0.000    -0.000 -0.6048 -0.3758  0.7021
    10 H(1)   Bbb     0.0000     0.000     0.000     0.000  0.3256  0.6879  0.6487
              Bcc     0.0000     0.000     0.000     0.000  0.7267 -0.6210  0.2937
 
              Baa    -0.0000    -0.000    -0.000    -0.000 -0.0706  0.1913  0.9790
    11 H(1)   Bbb     0.0000     0.000     0.000     0.000  0.8241  0.5641 -0.0507
              Bcc     0.0000     0.000     0.000     0.000 -0.5620  0.8032 -0.1975
 
              Baa    -0.0000    -0.000    -0.000    -0.000  0.2534  0.6887  0.6793
    12 H(1)   Bbb     0.0000     0.000     0.000     0.000 -0.5867 -0.4490  0.6740
              Bcc     0.0000     0.000     0.000     0.000  0.7692 -0.5693  0.2903
 
              Baa    -0.0000    -0.000    -0.000    -0.000 -0.3291 -0.5011  0.8004
    13 H(1)   Bbb     0.0000     0.000     0.000     0.000  0.9256 -0.3389  0.1684
              Bcc     0.0000     0.000     0.000     0.000  0.1868  0.7963  0.5754
 
              Baa    -0.0000    -0.000    -0.000    -0.000  0.6911 -0.5267 -0.4950
    14 H(1)   Bbb     0.0000     0.000     0.000     0.000  0.0800 -0.6250  0.7765
              Bcc     0.0000     0.000     0.000     0.000  0.7184  0.5762  0.3898
 
              Baa    -0.0000    -0.000    -0.000    -0.000  0.3258 -0.6176  0.7159
    15 H(1)   Bbb     0.0000     0.000     0.000     0.000 -0.0112  0.7546  0.6561
              Bcc     0.0000     0.000     0.000     0.000  0.9454  0.2218 -0.2389
 
              Baa    -0.0000    -0.000    -0.000    -0.000 -0.4628  0.6298 -0.6239
    16 H(1)   Bbb     0.0000     0.000     0.000     0.000  0.6222  0.7320  0.2774
              Bcc     0.0000     0.000     0.000     0.000 -0.6314  0.2598  0.7306
 
              Baa    -0.0000    -0.000    -0.000    -0.000  0.7522  0.6539  0.0817
    17 H(1)   Bbb    -0.0000    -0.000    -0.000    -0.000 -0.6016  0.6307  0.4903
              Bcc     0.0000     0.000     0.000     0.000  0.2690 -0.4179  0.8677
 
              Baa    -0.0000    -0.000    -0.000    -0.000  0.1640  0.7727  0.6132
    18 H(1)   Bbb     0.0000     0.000     0.000     0.000  0.9781 -0.2080  0.0005
              Bcc     0.0000     0.000     0.000     0.000 -0.1279 -0.5997  0.7899
 
              Baa    -0.0000    -0.000    -0.000    -0.000  0.7041  0.6748 -0.2211
    19 H(1)   Bbb    -0.0000    -0.000    -0.000    -0.000  0.2304  0.0775  0.9700
              Bcc     0.0000     0.000     0.000     0.000 -0.6716  0.7340  0.1009
 
              Baa    -0.0000    -0.000    -0.000    -0.000 -0.3395  0.7407  0.5797
    20 H(1)   Bbb     0.0000     0.000     0.000     0.000  0.9404  0.2789  0.1944
              Bcc     0.0000     0.000     0.000     0.000  0.0177 -0.6112  0.7913
 
              Baa    -0.0000    -0.000    -0.000    -0.000  0.5319 -0.5328  0.6582
    21 H(1)   Bbb     0.0000     0.000     0.000     0.000 -0.5750  0.3434  0.7426
              Bcc     0.0000     0.000     0.000     0.000  0.6217  0.7734  0.1237
 
              Baa    -0.0000    -0.000    -0.000    -0.000  0.1382  0.8151  0.5626
    22 H(1)   Bbb    -0.0000    -0.000    -0.000    -0.000  0.2767 -0.5772  0.7683
              Bcc     0.0000     0.000     0.000     0.000  0.9510  0.0495 -0.3053
 
              Baa    -0.0000    -0.000    -0.000    -0.000  0.7918  0.5950 -0.1381
    23 H(1)   Bbb    -0.0000    -0.000    -0.000    -0.000 -0.4048  0.6805  0.6108
              Bcc     0.0000     0.000     0.000     0.000  0.4574 -0.4277  0.7797
 
              Baa    -0.0000    -0.000    -0.000    -0.000  0.3014  0.9534  0.0158
    24 H(1)   Bbb    -0.0000    -0.000    -0.000    -0.000 -0.3714  0.1022  0.9228
              Bcc     0.0000     0.000     0.000     0.000  0.8782 -0.2840  0.3849
 
              Baa    -0.0000    -0.000    -0.000    -0.000  0.7579  0.4068  0.5100
    25 H(1)   Bbb     0.0000     0.000     0.000     0.000 -0.1322 -0.6697  0.7308
              Bcc     0.0000     0.000     0.000     0.000  0.6388 -0.6213 -0.4538
 
              Baa    -0.0000    -0.000    -0.000    -0.000  0.8674  0.4740 -0.1517
    26 H(1)   Bbb     0.0000     0.000     0.000     0.000 -0.4877  0.8703 -0.0692
              Bcc     0.0000     0.000     0.000     0.000  0.0992  0.1340  0.9860
 

 ---------------------------------------------------------------------------------

 CPIOFr:  IOpCl= 1 IRwI=-1 IRwCP=  731 ICalc= -1 LCPTot=      198083 Len1MO=      642874 IndFrg=      198083
 CPIOFr:  IOpCl= 1 IRwI=-1 IRwCP=  731 ICalc=  0 LCPTot=      198083 Len1MO=      642874 IndFrg=      840957
 Counterpoise: doing calculation for fragment   1 using the basis set of the full-system, NewBq=T
 Basis read from rwf:  (5D, 7F)
 Pseudo-potential data read from rwf file.
   356 basis functions,   552 primitive gaussians,   396 cartesian basis functions
    17 alpha electrons       16 beta electrons
       nuclear repulsion energy       123.4424283828 Hartrees.
 NAtoms=   26 NActive=   26 NUniq=   26 SFac= 1.00D+00 NAtFMM=   60 NAOKFM=F Big=F
 Integral buffers will be    131072 words long.
 Raffenetti 2 integral format.
 Two-electron integral symmetry is turned off.
 One-electron integrals computed using PRISM.
   1 Symmetry operations used in ECPInt.
 ECPInt:  NShTT=   12880 NPrTT=   36276 LenC2=   11773 LenP2D=   25829.
 LDataN:  DoStor=T MaxTD1= 6 Len=  172
 NBasis=   356 RedAO= T EigKep=  6.71D-05  NBF=   356
 NBsUse=   356 1.00D-06 EigRej= -1.00D+00 NBFU=   356
 ExpMin= 9.52D-02 ExpMax= 1.36D+04 ExpMxC= 4.63D+02 IAcc=3 IRadAn=         5 AccDes= 0.00D+00
 Harris functional with IExCor= 1009 and IRadAn=       5 diagonalized for initial guess.
 HarFok:  IExCor= 1009 AccDes= 0.00D+00 IRadAn=         5 IDoV= 1 UseB2=F ITyADJ=14
 ICtDFT=  3500011 ScaDFX=  1.000000  1.000000  1.000000  1.000000
 FoFCou: FMM=F IPFlag=           0 FMFlag=      100000 FMFlg1=           0
         NFxFlg=           0 DoJE=T BraDBF=F KetDBF=T FulRan=T
         wScrn=  0.000000 ICntrl=       500 IOpCl=  0 I1Cent=   200000004 NGrid=           0
         NMat0=    1 NMatS0=      1 NMatT0=    0 NMatD0=    1 NMtDS0=    0 NMtDT0=    0
 Symmetry not used in FoFCou.
 Initial guess <Sx>= 0.0000 <Sy>= 0.0000 <Sz>= 0.5000 <S**2>= 0.7500 S= 0.5000
 Requested convergence on RMS density matrix=1.00D-08 within 128 cycles.
 Requested convergence on MAX density matrix=1.00D-06.
 Requested convergence on             energy=1.00D-06.
 No special actions if energy rises.
 Integral accuracy reduced to 1.0D-05 until final iterations.
 Initial convergence to 1.0D-05 achieved.  Increase integral accuracy.
 SCF Done:  E(UM062X) =  -157.736106149     A.U. after   14 cycles
            NFock= 14  Conv=0.35D-08     -V/T= 2.0056
 <Sx>= 0.0000 <Sy>= 0.0000 <Sz>= 0.5000 <S**2>= 0.7543 S= 0.5022
 <L.S>= 0.000000000000E+00
 Annihilation of the first spin contaminant:
 S**2 before annihilation     0.7543,   after     0.7500

 **********************************************************************

            Population analysis using the SCF Density.

 **********************************************************************

 Alpha  occ. eigenvalues --  -10.54942 -10.53467 -10.53209 -10.52437  -0.90168
 Alpha  occ. eigenvalues --   -0.81872  -0.71144  -0.66251  -0.54808  -0.49805
 Alpha  occ. eigenvalues --   -0.48442  -0.46353  -0.41768  -0.41671  -0.39880
 Alpha  occ. eigenvalues --   -0.38627  -0.29527
 Alpha virt. eigenvalues --    0.03872   0.06745   0.08919   0.09475   0.10487
 Alpha virt. eigenvalues --    0.11666   0.12252   0.12497   0.14569   0.14872
 Alpha virt. eigenvalues --    0.15944   0.16353   0.17325   0.18649   0.19406
 Alpha virt. eigenvalues --    0.20532   0.20891   0.22067   0.22143   0.23833
 Alpha virt. eigenvalues --    0.24166   0.25604   0.26090   0.27342   0.28833
 Alpha virt. eigenvalues --    0.29061   0.30529   0.32343   0.32602   0.33854
 Alpha virt. eigenvalues --    0.34410   0.36264   0.36532   0.36800   0.37728
 Alpha virt. eigenvalues --    0.38196   0.39061   0.39560   0.39682   0.40598
 Alpha virt. eigenvalues --    0.42730   0.44061   0.44882   0.45894   0.48707
 Alpha virt. eigenvalues --    0.48836   0.49829   0.50896   0.51140   0.51292
 Alpha virt. eigenvalues --    0.51940   0.53858   0.53886   0.54611   0.57088
 Alpha virt. eigenvalues --    0.59791   0.62642   0.64407   0.64765   0.66359
 Alpha virt. eigenvalues --    0.68323   0.70726   0.72535   0.73101   0.73991
 Alpha virt. eigenvalues --    0.74004   0.75178   0.76233   0.78256   0.78777
 Alpha virt. eigenvalues --    0.79824   0.82300   0.84995   0.86973   0.87224
 Alpha virt. eigenvalues --    0.88057   0.90415   0.91237   0.93191   0.95974
 Alpha virt. eigenvalues --    0.97540   1.00759   1.01518   1.01996   1.02860
 Alpha virt. eigenvalues --    1.03886   1.04286   1.05426   1.08063   1.10295
 Alpha virt. eigenvalues --    1.11162   1.11775   1.12187   1.13884   1.14959
 Alpha virt. eigenvalues --    1.15481   1.16976   1.18277   1.18930   1.21401
 Alpha virt. eigenvalues --    1.22463   1.23247   1.24768   1.29273   1.30072
 Alpha virt. eigenvalues --    1.30637   1.31895   1.32990   1.35668   1.39720
 Alpha virt. eigenvalues --    1.41028   1.41902   1.47307   1.48159   1.50775
 Alpha virt. eigenvalues --    1.53880   1.54561   1.57259   1.57501   1.58010
 Alpha virt. eigenvalues --    1.59827   1.59840   1.61056   1.62541   1.63748
 Alpha virt. eigenvalues --    1.64829   1.66601   1.66648   1.68065   1.69395
 Alpha virt. eigenvalues --    1.72050   1.72108   1.72459   1.78794   1.80071
 Alpha virt. eigenvalues --    1.83548   1.86765   1.88551   1.89059   1.89110
 Alpha virt. eigenvalues --    1.92009   1.93852   1.94493   1.97072   1.98317
 Alpha virt. eigenvalues --    2.01968   2.03750   2.06897   2.07289   2.07429
 Alpha virt. eigenvalues --    2.13565   2.16290   2.16975   2.20291   2.22340
 Alpha virt. eigenvalues --    2.22449   2.26266   2.29323   2.30585   2.33741
 Alpha virt. eigenvalues --    2.34611   2.35140   2.36563   2.38346   2.40660
 Alpha virt. eigenvalues --    2.42078   2.45685   2.47038   2.48641   2.49483
 Alpha virt. eigenvalues --    2.50986   2.51962   2.55047   2.56790   2.58178
 Alpha virt. eigenvalues --    2.58327   2.59810   2.61815   2.64081   2.64817
 Alpha virt. eigenvalues --    2.66178   2.67881   2.69868   2.70897   2.72882
 Alpha virt. eigenvalues --    2.74531   2.74607   2.75771   2.78479   2.79648
 Alpha virt. eigenvalues --    2.81997   2.82786   2.87673   2.90846   2.91986
 Alpha virt. eigenvalues --    2.94073   2.97591   2.99106   3.03555   3.03837
 Alpha virt. eigenvalues --    3.05375   3.06409   3.08807   3.10953   3.12898
 Alpha virt. eigenvalues --    3.12917   3.16536   3.16828   3.19289   3.19959
 Alpha virt. eigenvalues --    3.22190   3.23300   3.23389   3.23677   3.26190
 Alpha virt. eigenvalues --    3.28135   3.28513   3.28759   3.30299   3.30916
 Alpha virt. eigenvalues --    3.31698   3.32456   3.32508   3.36669   3.38656
 Alpha virt. eigenvalues --    3.40781   3.42671   3.44557   3.45489   3.46540
 Alpha virt. eigenvalues --    3.47144   3.47254   3.51787   3.51999   3.54048
 Alpha virt. eigenvalues --    3.56282   3.56935   3.58548   3.59628   3.60068
 Alpha virt. eigenvalues --    3.63921   3.66607   3.68204   3.71562   3.77457
 Alpha virt. eigenvalues --    3.80137   3.81134   3.86415   3.87138   3.87619
 Alpha virt. eigenvalues --    3.88271   3.91073   3.94233   3.95307   4.00790
 Alpha virt. eigenvalues --    4.02312   4.05003   4.05536   4.06137   4.09018
 Alpha virt. eigenvalues --    4.11247   4.11447   4.11932   4.16887   4.23334
 Alpha virt. eigenvalues --    4.25895   4.28136   4.29271   4.31823   4.32708
 Alpha virt. eigenvalues --    4.36156   4.36362   4.38106   4.41027   4.44712
 Alpha virt. eigenvalues --    4.46759   4.49178   4.50152   4.50997   4.55648
 Alpha virt. eigenvalues --    4.56220   4.56825   4.58365   4.59494   4.59579
 Alpha virt. eigenvalues --    4.63901   4.67620   4.68902   4.70444   4.72098
 Alpha virt. eigenvalues --    4.74226   4.78945   4.81660   4.87668   4.89437
 Alpha virt. eigenvalues --    4.90215   4.92831   4.97436   5.02345   5.04992
 Alpha virt. eigenvalues --    5.10757   5.12413   5.17382   5.20155   5.21567
 Alpha virt. eigenvalues --    5.28378   5.35153   5.42607   5.55880   5.62803
 Alpha virt. eigenvalues --    5.67126   5.74241   5.79111   5.86619   5.89708
 Alpha virt. eigenvalues --    6.01192   6.05785   6.06904   6.12292   6.16192
 Alpha virt. eigenvalues --    6.37288   6.42865   6.43614   6.48972   6.65417
 Alpha virt. eigenvalues --    6.99289   7.30570   9.76350   9.81020  10.06062
 Alpha virt. eigenvalues --   10.34493  22.41579  22.49344  22.59325  22.60530
 Alpha virt. eigenvalues --   62.51133  63.42020  65.55861  65.69487
  Beta  occ. eigenvalues --  -10.54040 -10.53385 -10.53233 -10.52425  -0.89526
  Beta  occ. eigenvalues --   -0.80510  -0.69341  -0.65480  -0.54465  -0.49346
  Beta  occ. eigenvalues --   -0.47749  -0.45290  -0.41176  -0.40469  -0.39289
  Beta  occ. eigenvalues --   -0.38434
  Beta virt. eigenvalues --   -0.04279   0.05841   0.07343   0.09237   0.10165
  Beta virt. eigenvalues --    0.10657   0.12356   0.13298   0.13388   0.14839
  Beta virt. eigenvalues --    0.15624   0.16351   0.16462   0.18551   0.18608
  Beta virt. eigenvalues --    0.19644   0.21803   0.21955   0.22255   0.23177
  Beta virt. eigenvalues --    0.23320   0.24185   0.26497   0.27111   0.29571
  Beta virt. eigenvalues --    0.29675   0.30389   0.31835   0.32412   0.32464
  Beta virt. eigenvalues --    0.33972   0.35213   0.37276   0.37581   0.38070
  Beta virt. eigenvalues --    0.39492   0.39808   0.40877   0.40984   0.41567
  Beta virt. eigenvalues --    0.42194   0.43057   0.45213   0.45326   0.46660
  Beta virt. eigenvalues --    0.48991   0.48996   0.50262   0.51142   0.51289
  Beta virt. eigenvalues --    0.51314   0.52187   0.54107   0.55009   0.55766
  Beta virt. eigenvalues --    0.57332   0.59085   0.61051   0.62375   0.64559
  Beta virt. eigenvalues --    0.66206   0.68175   0.69823   0.71153   0.72812
  Beta virt. eigenvalues --    0.74120   0.75470   0.77456   0.77537   0.79951
  Beta virt. eigenvalues --    0.80703   0.81245   0.82436   0.85575   0.86471
  Beta virt. eigenvalues --    0.87138   0.88607   0.91355   0.91504   0.94848
  Beta virt. eigenvalues --    0.95075   0.95234   0.95542   0.99734   0.99977
  Beta virt. eigenvalues --    1.02137   1.04569   1.05893   1.07089   1.09083
  Beta virt. eigenvalues --    1.10973   1.11775   1.12104   1.12628   1.15271
  Beta virt. eigenvalues --    1.15824   1.16231   1.16710   1.17471   1.18855
  Beta virt. eigenvalues --    1.20912   1.22470   1.24452   1.24625   1.27772
  Beta virt. eigenvalues --    1.30394   1.31339   1.32467   1.32778   1.34265
  Beta virt. eigenvalues --    1.35861   1.39680   1.42527   1.46269   1.48011
  Beta virt. eigenvalues --    1.49532   1.50829   1.52033   1.55257   1.57529
  Beta virt. eigenvalues --    1.58828   1.59562   1.60212   1.61711   1.62943
  Beta virt. eigenvalues --    1.63942   1.64026   1.64979   1.66344   1.66678
  Beta virt. eigenvalues --    1.70171   1.70666   1.71914   1.74121   1.76786
  Beta virt. eigenvalues --    1.78112   1.79809   1.84920   1.86654   1.89170
  Beta virt. eigenvalues --    1.91444   1.92493   1.93404   1.94451   1.94801
  Beta virt. eigenvalues --    1.98913   2.00673   2.03358   2.04836   2.06839
  Beta virt. eigenvalues --    2.08069   2.10150   2.14095   2.17460   2.21027
  Beta virt. eigenvalues --    2.21158   2.21417   2.22244   2.25320   2.28082
  Beta virt. eigenvalues --    2.33668   2.34211   2.35161   2.36243   2.40959
  Beta virt. eigenvalues --    2.42227   2.44595   2.44999   2.46380   2.47578
  Beta virt. eigenvalues --    2.48375   2.49058   2.50404   2.55006   2.55133
  Beta virt. eigenvalues --    2.56931   2.58368   2.58507   2.59494   2.63272
  Beta virt. eigenvalues --    2.63874   2.65679   2.66181   2.67916   2.68817
  Beta virt. eigenvalues --    2.70944   2.71147   2.74069   2.74474   2.75217
  Beta virt. eigenvalues --    2.77460   2.80137   2.83762   2.83771   2.87174
  Beta virt. eigenvalues --    2.88159   2.90169   2.96615   2.97100   2.98753
  Beta virt. eigenvalues --    3.00512   3.03084   3.04535   3.05189   3.08069
  Beta virt. eigenvalues --    3.10946   3.12187   3.12669   3.13606   3.16206
  Beta virt. eigenvalues --    3.16948   3.18891   3.20443   3.20551   3.21029
  Beta virt. eigenvalues --    3.22913   3.24100   3.27134   3.27200   3.28801
  Beta virt. eigenvalues --    3.30354   3.30839   3.34992   3.35771   3.35895
  Beta virt. eigenvalues --    3.37769   3.38739   3.41410   3.43211   3.43947
  Beta virt. eigenvalues --    3.44089   3.44977   3.47711   3.47792   3.51871
  Beta virt. eigenvalues --    3.52470   3.53475   3.56672   3.56769   3.58586
  Beta virt. eigenvalues --    3.59460   3.62802   3.64305   3.65136   3.66734
  Beta virt. eigenvalues --    3.69391   3.70310   3.71630   3.72778   3.75888
  Beta virt. eigenvalues --    3.79110   3.83044   3.83356   3.87407   3.87867
  Beta virt. eigenvalues --    3.87894   3.89434   3.91048   3.94459   4.00444
  Beta virt. eigenvalues --    4.01503   4.02933   4.05955   4.07649   4.10913
  Beta virt. eigenvalues --    4.14794   4.15489   4.16839   4.17642   4.19867
  Beta virt. eigenvalues --    4.23296   4.24213   4.27586   4.29930   4.31886
  Beta virt. eigenvalues --    4.33141   4.36966   4.40067   4.40676   4.42407
  Beta virt. eigenvalues --    4.47530   4.50550   4.50726   4.52554   4.55207
  Beta virt. eigenvalues --    4.56986   4.57350   4.59701   4.60018   4.61769
  Beta virt. eigenvalues --    4.62887   4.63686   4.69026   4.75587   4.78471
  Beta virt. eigenvalues --    4.79181   4.79794   4.79920   4.84248   4.90113
  Beta virt. eigenvalues --    4.95700   5.00446   5.02979   5.03294   5.12464
  Beta virt. eigenvalues --    5.15092   5.18421   5.28679   5.28784   5.36979
  Beta virt. eigenvalues --    5.39436   5.45000   5.51499   5.58793   5.66281
  Beta virt. eigenvalues --    5.83799   5.86431   5.89242   5.89691   6.01018
  Beta virt. eigenvalues --    6.15065   6.20419   6.23537   6.29683   6.50591
  Beta virt. eigenvalues --    6.64454   6.88847   7.05044   8.09797   9.83329
  Beta virt. eigenvalues --   10.22394  10.30675  22.41652  22.49542  22.59654
  Beta virt. eigenvalues --   22.61059  55.23806  63.53275  65.92859  66.05648
          Condensed to atoms (all electrons):
               1          2          3          4          5          6
     1  C    5.031918   0.263189  -0.056252   0.013036  -0.000052   0.000031
     2  C    0.263189   5.157723   0.235025  -0.044948  -0.003648  -0.000157
     3  C   -0.056252   0.235025   5.222662   0.209029   0.001539   0.002531
     4  C    0.013036  -0.044948   0.209029   5.743876  -0.182868  -0.005729
     5  C   -0.000052  -0.003648   0.001539  -0.182868   0.047871  -0.004962
     6  C    0.000031  -0.000157   0.002531  -0.005729  -0.004962   0.005276
     7  C    0.000000  -0.000010   0.000095  -0.004052   0.001795  -0.001201
     8  C   -0.000000   0.000000  -0.000002  -0.000037  -0.000056   0.000181
     9  H    0.424166  -0.053203   0.014130  -0.001091   0.000028  -0.000001
    10  H    0.416175  -0.040804  -0.007253  -0.000096  -0.000036  -0.000000
    11  H    0.416172  -0.040809  -0.007250  -0.000094  -0.000036  -0.000000
    12  H   -0.038275   0.428677  -0.054338  -0.000324  -0.000487  -0.000009
    13  H   -0.038265   0.428662  -0.054306  -0.000342  -0.000487  -0.000009
    14  H   -0.003708  -0.044885   0.421453  -0.045434   0.003230  -0.000522
    15  H   -0.003698  -0.044892   0.421483  -0.045474   0.003234  -0.000523
    16  H   -0.000111  -0.005803  -0.045365   0.393431   0.009232  -0.001783
    17  H   -0.000111  -0.005795  -0.045368   0.393427   0.009226  -0.001782
    18  H   -0.000029   0.000383  -0.001148   0.013205  -0.004352   0.000404
    19  H   -0.000029   0.000383  -0.001149   0.013206  -0.004353   0.000405
    20  H   -0.000002   0.000038  -0.000154   0.003210  -0.000369  -0.000598
    21  H   -0.000002   0.000038  -0.000154   0.003211  -0.000369  -0.000598
    22  H   -0.000000   0.000001  -0.000008   0.000370  -0.000221   0.000152
    23  H   -0.000000   0.000001  -0.000008   0.000370  -0.000221   0.000152
    24  H    0.000000  -0.000000   0.000000  -0.000005   0.000003  -0.000027
    25  H   -0.000000  -0.000000  -0.000000   0.000003  -0.000001   0.000003
    26  H   -0.000000  -0.000000  -0.000000   0.000003  -0.000001   0.000003
               7          8          9         10         11         12
     1  C    0.000000  -0.000000   0.424166   0.416175   0.416172  -0.038275
     2  C   -0.000010   0.000000  -0.053203  -0.040804  -0.040809   0.428677
     3  C    0.000095  -0.000002   0.014130  -0.007253  -0.007250  -0.054338
     4  C   -0.004052  -0.000037  -0.001091  -0.000096  -0.000094  -0.000324
     5  C    0.001795  -0.000056   0.000028  -0.000036  -0.000036  -0.000487
     6  C   -0.001201   0.000181  -0.000001  -0.000000  -0.000000  -0.000009
     7  C    0.001638  -0.000313   0.000000  -0.000000  -0.000000  -0.000000
     8  C   -0.000313   0.000253   0.000000  -0.000000  -0.000000  -0.000000
     9  H    0.000000   0.000000   0.530465  -0.024511  -0.024524  -0.004208
    10  H   -0.000000  -0.000000  -0.024511   0.545928  -0.031571  -0.006007
    11  H   -0.000000  -0.000000  -0.024524  -0.031571   0.545940   0.007614
    12  H   -0.000000  -0.000000  -0.004208  -0.006007   0.007614   0.567027
    13  H   -0.000000  -0.000000  -0.004210   0.007613  -0.006003  -0.035184
    14  H    0.000009  -0.000001  -0.000159   0.000229   0.002601   0.008042
    15  H    0.000009  -0.000001  -0.000159   0.002601   0.000227  -0.005915
    16  H   -0.000020  -0.000004   0.000014   0.000136  -0.000061   0.002138
    17  H   -0.000020  -0.000004   0.000014  -0.000061   0.000136   0.000402
    18  H   -0.000277  -0.000002  -0.000000   0.000008  -0.000009  -0.000056
    19  H   -0.000276  -0.000002  -0.000000  -0.000009   0.000008   0.000126
    20  H   -0.000163  -0.000005   0.000000   0.000000  -0.000000  -0.000011
    21  H   -0.000163  -0.000005   0.000000  -0.000000   0.000000   0.000007
    22  H   -0.000165   0.000018   0.000000  -0.000000   0.000000  -0.000000
    23  H   -0.000165   0.000018   0.000000   0.000000  -0.000000  -0.000000
    24  H    0.000064  -0.000049  -0.000000   0.000000   0.000000   0.000000
    25  H   -0.000004  -0.000003   0.000000   0.000000  -0.000000   0.000000
    26  H   -0.000004  -0.000003   0.000000  -0.000000   0.000000  -0.000000
              13         14         15         16         17         18
[...]
 Alpha virt. eigenvalues --   22.57100
  Beta  occ. eigenvalues --  -10.54046 -10.53395 -10.53236 -10.52434  -0.89532
  Beta  occ. eigenvalues --   -0.80512  -0.69345  -0.65482  -0.54472  -0.49349
  Beta  occ. eigenvalues --   -0.47750  -0.45296  -0.41177  -0.40472  -0.39288
  Beta  occ. eigenvalues --   -0.38436
  Beta virt. eigenvalues --   -0.04163   0.06795   0.09330   0.11202   0.11214
  Beta virt. eigenvalues --    0.14849   0.15320   0.15387   0.17439   0.18164
  Beta virt. eigenvalues --    0.18351   0.20644   0.22622   0.24133   0.25333
  Beta virt. eigenvalues --    0.26549   0.28065   0.28137   0.32268   0.32355
  Beta virt. eigenvalues --    0.37783   0.40384   0.40975   0.41712   0.45025
  Beta virt. eigenvalues --    0.45137   0.47466   0.47868   0.49893   0.51084
  Beta virt. eigenvalues --    0.52191   0.53121   0.53479   0.56750   0.56987
  Beta virt. eigenvalues --    0.62554   0.64205   0.68188   0.72957   0.73952
  Beta virt. eigenvalues --    0.82900   0.86395   0.87175   0.90092   0.90504
  Beta virt. eigenvalues --    0.98929   1.00650   1.02895   1.03618   1.06935
  Beta virt. eigenvalues --    1.11437   1.12270   1.16828   1.17095   1.18489
  Beta virt. eigenvalues --    1.22033   1.22986   1.30651   1.46013   1.52810
  Beta virt. eigenvalues --    1.54378   1.55564   1.57247   1.58189   1.61219
  Beta virt. eigenvalues --    1.61806   1.62887   1.64315   1.67388   1.70616
  Beta virt. eigenvalues --    1.75398   1.81091   1.82567   1.84855   1.87468
  Beta virt. eigenvalues --    1.90257   1.90831   1.93542   1.95994   1.97841
  Beta virt. eigenvalues --    1.99425   2.06861   2.10908   2.13480   2.23622
  Beta virt. eigenvalues --    2.30258   2.31680   2.33159   2.33584   2.35360
  Beta virt. eigenvalues --    2.40837   2.42437   2.44169   2.46411   2.48084
  Beta virt. eigenvalues --    2.50971   2.54504   2.57371   2.58634   2.63667
  Beta virt. eigenvalues --    2.63849   2.65356   2.65759   2.68552   2.70216
  Beta virt. eigenvalues --    2.71333   2.73110   2.77326   2.82338   2.84873
  Beta virt. eigenvalues --    2.97079   3.00427   3.00502   3.04056   3.09815
  Beta virt. eigenvalues --    3.13862   3.14983   3.15323   3.19003   3.19235
  Beta virt. eigenvalues --    3.24929   3.26425   3.28334   3.29463   3.31888
  Beta virt. eigenvalues --    3.34720   3.37280   3.40608   3.44734   3.45298
  Beta virt. eigenvalues --    3.46318   3.56359   3.56491   3.58726   3.62850
  Beta virt. eigenvalues --    3.63712   3.71154   3.80362   3.84661   3.87239
  Beta virt. eigenvalues --    3.87637   3.94286   3.95061   4.01432   4.05201
  Beta virt. eigenvalues --    4.14430   4.26450   4.28841   4.34730   4.43757
  Beta virt. eigenvalues --    4.49822   4.51477   4.55414   4.56281   4.61731
  Beta virt. eigenvalues --    4.67576   4.77486   4.95238  22.16627  22.42185
  Beta virt. eigenvalues --   22.49483  22.57125
          Condensed to atoms (all electrons):
               5          6          7          8         18         19
     5  C    5.352170   0.257875  -0.061645   0.013686   0.414582   0.414569
     6  C    0.257875   5.151073   0.278866  -0.057323  -0.059621  -0.059623
     7  C   -0.061645   0.278866   5.139648   0.258022  -0.000454  -0.000446
     8  C    0.013686  -0.057323   0.258022   5.039326  -0.000487  -0.000486
    18  H    0.414582  -0.059621  -0.000454  -0.000487   0.552792  -0.047716
    19  H    0.414569  -0.059623  -0.000446  -0.000486  -0.047716   0.552802
    20  H   -0.033477   0.406980  -0.043891  -0.004457   0.008515  -0.008914
    21  H   -0.033500   0.406988  -0.043891  -0.004449  -0.008913   0.008517
    22  H   -0.002131  -0.049361   0.420813  -0.036545   0.003833  -0.000595
    23  H   -0.002141  -0.049340   0.420804  -0.036536  -0.000593   0.003833
    24  H   -0.000828   0.011447  -0.044712   0.416455   0.000024   0.000024
    25  H   -0.000095  -0.006815  -0.041267   0.416116  -0.000034   0.000097
    26  H   -0.000096  -0.006820  -0.041261   0.416117   0.000097  -0.000034
              20         21         22         23         24         25
     5  C   -0.033477  -0.033500  -0.002131  -0.002141  -0.000828  -0.000095
     6  C    0.406980   0.406988  -0.049361  -0.049340   0.011447  -0.006815
     7  C   -0.043891  -0.043891   0.420813   0.420804  -0.044712  -0.041267
     8  C   -0.004457  -0.004449  -0.036545  -0.036536   0.416455   0.416116
    18  H    0.008515  -0.008913   0.003833  -0.000593   0.000024  -0.000034
    19  H   -0.008914   0.008517  -0.000595   0.003833   0.000024   0.000097
    20  H    0.579117  -0.036313   0.009156  -0.007676  -0.000201   0.003419
    21  H   -0.036313   0.579127  -0.007675   0.009154  -0.000201  -0.000045
    22  H    0.009156  -0.007675   0.575367  -0.037571  -0.004815   0.007916
    23  H   -0.007676   0.009154  -0.037571   0.575346  -0.004816  -0.006550
    24  H   -0.000201  -0.000201  -0.004815  -0.004816   0.534707  -0.024370
    25  H    0.003419  -0.000045   0.007916  -0.006550  -0.024370   0.546852
    26  H   -0.000043   0.003419  -0.006554   0.007915  -0.024358  -0.032136
              26
     5  C   -0.000096
     6  C   -0.006820
     7  C   -0.041261
     8  C    0.416117
    18  H    0.000097
    19  H   -0.000034
    20  H   -0.000043
    21  H    0.003419
    22  H   -0.006554
    23  H    0.007915
    24  H   -0.024358
    25  H   -0.032136
    26  H    0.546840
          Atomic-Atomic Spin Densities.
               5          6          7          8         18         19
     5  C    1.147246  -0.044768  -0.028398   0.006265  -0.008873  -0.008869
     6  C   -0.044768  -0.052885   0.015979  -0.004415   0.002384   0.002382
     7  C   -0.028398   0.015979   0.105490  -0.021446  -0.002614  -0.002612
     8  C    0.006265  -0.004415  -0.021446   0.030676   0.000326   0.000326
    18  H   -0.008873   0.002384  -0.002614   0.000326  -0.022651   0.002069
    19  H   -0.008869   0.002382  -0.002612   0.000326   0.002069  -0.022656
    20  H   -0.006849   0.007837  -0.009645   0.001983   0.000169   0.000907
    21  H   -0.006846   0.007834  -0.009642   0.001983   0.000907   0.000169
    22  H    0.000587   0.003217  -0.003237   0.000363  -0.000103  -0.000088
    23  H    0.000589   0.003215  -0.003239   0.000365  -0.000087  -0.000103
    24  H   -0.000375  -0.000226   0.002502  -0.002428  -0.000014  -0.000014
    25  H   -0.000003   0.000445  -0.000026  -0.000401   0.000001  -0.000005
    26  H   -0.000003   0.000444  -0.000026  -0.000401  -0.000005   0.000001
              20         21         22         23         24         25
     5  C   -0.006849  -0.006846   0.000587   0.000589  -0.000375  -0.000003
     6  C    0.007837   0.007834   0.003217   0.003215  -0.000226   0.000445
     7  C   -0.009645  -0.009642  -0.003237  -0.003239   0.002502  -0.000026
     8  C    0.001983   0.001983   0.000363   0.000365  -0.002428  -0.000401
    18  H    0.000169   0.000907  -0.000103  -0.000087  -0.000014   0.000001
    19  H    0.000907   0.000169  -0.000088  -0.000103  -0.000014  -0.000005
    20  H    0.010561   0.001397   0.000105  -0.000041  -0.000117   0.000084
    21  H    0.001397   0.010557  -0.000041   0.000105  -0.000117  -0.000028
    22  H    0.000105  -0.000041  -0.002766   0.000346  -0.000274  -0.000045
    23  H   -0.000041   0.000105   0.000346  -0.002765  -0.000274   0.000050
    24  H   -0.000117  -0.000117  -0.000274  -0.000274   0.002824  -0.000082
    25  H    0.000084  -0.000028  -0.000045   0.000050  -0.000082  -0.000423
    26  H   -0.000028   0.000084   0.000050  -0.000045  -0.000082   0.000071
              26
     5  C   -0.000003
     6  C    0.000444
     7  C   -0.000026
     8  C   -0.000401
    18  H   -0.000005
    19  H    0.000001
    20  H   -0.000028
    21  H    0.000084
    22  H    0.000050
    23  H   -0.000045
    24  H   -0.000082
    25  H    0.000071
    26  H   -0.000424
 Mulliken charges and spin densities:
               1          2
     1  C    0.000000   0.000000
     2  C    0.000000   0.000000
     3  C    0.000000   0.000000
     4  C    0.000000   0.000000
     5  C   -0.318970   1.049701
     6  C   -0.224328  -0.058557
     7  C   -0.240586   0.043087
     8  C   -0.419439   0.013195
     9  H    0.000000   0.000000
    10  H    0.000000   0.000000
    11  H    0.000000   0.000000
    12  H    0.000000   0.000000
    13  H    0.000000   0.000000
    14  H    0.000000   0.000000
    15  H    0.000000   0.000000
    16  H    0.000000   0.000000
    17  H    0.000000   0.000000
    18  H    0.137975  -0.028490
    19  H    0.137973  -0.028494
    20  H    0.127787   0.006364
    21  H    0.127783   0.006363
    22  H    0.128162  -0.001884
    23  H    0.128172  -0.001882
    24  H    0.141643   0.001323
    25  H    0.136913  -0.000363
    26  H    0.136915  -0.000363
 Sum of Mulliken charges =  -0.00000   1.00000
 Mulliken charges and spin densities with hydrogens summed into heavy atoms:
               1          2
     1  C    0.000000   0.000000
     2  C    0.000000   0.000000
     3  C    0.000000   0.000000
     4  C    0.000000   0.000000
     5  C   -0.043022   0.992717
     6  C    0.031242  -0.045831
     7  C    0.015748   0.039321
     8  C   -0.003967   0.013793
         Mulliken charges and spin densities condensed to fragments:
      1      0.000000      0.000000
      2     -0.000000      1.000000
 Electronic spatial extent (au):  <R**2>=           1205.1123
 Charge=             -0.0000 electrons
 Dipole moment (field-independent basis, Debye):
    X=              0.7754    Y=              0.3329    Z=              0.2533  Tot=              0.8811
 Quadrupole moment (field-independent basis, Debye-Ang):
   XX=            -26.9828   YY=            -27.8839   ZZ=            -27.2140
   XY=              0.4880   XZ=              0.0753   YZ=              0.1750
 Traceless Quadrupole moment (field-independent basis, Debye-Ang):
   XX=              0.3774   YY=             -0.5237   ZZ=              0.1462
   XY=              0.4880   XZ=              0.0753   YZ=              0.1750
 Octapole moment (field-independent basis, Debye-Ang**2):
  XXX=           -204.5039  YYY=            -20.1272  ZZZ=            -67.1716  XYY=            -68.6816
  XXY=             -4.6597  XXZ=            -23.3895  XZZ=            -67.5292  YZZ=             -6.3419
  YYZ=            -22.8481  XYZ=              0.6676
 Hexadecapole moment (field-independent basis, Debye-Ang**3):
 XXXX=          -1395.4817 YYYY=           -102.6320 ZZZZ=           -205.0079 XXXY=            -22.0603
 XXXZ=           -226.3973 YYYX=            -35.1818 YYYZ=            -11.1897 ZZZX=           -220.6946
 ZZZY=            -12.4319 XXYY=           -247.8552 XXZZ=           -265.9203 YYZZ=            -48.6684
 XXYZ=              1.6889 YYXZ=            -74.8423 ZZXY=            -11.2631
 N-N= 1.234424202985D+02 E-N=-6.114208012604D+02  KE= 1.568515441366D+02
                          Isotropic Fermi Contact Couplings
        Atom                 a.u.       MegaHertz       Gauss      10(-4) cm-1
     5  C(13)              0.42806     481.22683     171.71370     160.51999
     6  C(13)             -0.01262     -14.18844      -5.06279      -4.73276
     7  C(13)              0.06070      68.23562      24.34817      22.76095
     8  C(13)              0.00661       7.42573       2.64969       2.47696
    18  H(1)              -0.00500     -22.36420      -7.98010      -7.45989
    19  H(1)              -0.00500     -22.36994      -7.98215      -7.46181
    20  H(1)               0.00359      16.06471       5.73229       5.35861
    21  H(1)               0.00359      16.06069       5.73085       5.35727
    22  H(1)              -0.00053      -2.39047      -0.85298      -0.79737
    23  H(1)              -0.00054      -2.39194      -0.85350      -0.79787
    24  H(1)               0.00074       3.29938       1.17730       1.10056
    25  H(1)              -0.00017      -0.76997      -0.27475      -0.25684
    26  H(1)              -0.00017      -0.77009      -0.27479      -0.25687
 --------------------------------------------------------
       Center         ----  Spin Dipole Couplings  ----
                      3XX-RR        3YY-RR        3ZZ-RR
 --------------------------------------------------------
     5   Atom        0.272240      0.134622     -0.406862
     6   Atom        0.032208     -0.016828     -0.015381
     7   Atom        0.042151     -0.015953     -0.026198
     8   Atom        0.012806     -0.005745     -0.007062
    18   Atom       -0.015794      0.003854      0.011940
    19   Atom       -0.031097     -0.000149      0.031245
    20   Atom        0.010449     -0.000260     -0.010189
    21   Atom       -0.000775     -0.000754      0.001529
    22   Atom        0.000836     -0.001974      0.001139
    23   Atom        0.007657     -0.002398     -0.005259
    24   Atom        0.002859     -0.000953     -0.001906
    25   Atom        0.003230     -0.001257     -0.001973
    26   Atom        0.001504     -0.001357     -0.000147
 --------------------------------------------------------
                        XY            XZ            YZ
 --------------------------------------------------------
     5   Atom        0.689659      0.240184      0.219492
     6   Atom        0.001935      0.017883      0.000566
     7   Atom        0.036414      0.024909      0.011846
     8   Atom       -0.009353      0.007703     -0.003203
    18   Atom       -0.001844     -0.027173      0.060964
    19   Atom        0.035357     -0.007531     -0.048816
    20   Atom       -0.013483     -0.003702      0.002941
    21   Atom       -0.008636      0.011114     -0.010528
    22   Atom        0.003273      0.006822      0.007505
    23   Atom        0.006950     -0.002304     -0.004105
    24   Atom        0.000732      0.001778      0.000216
    25   Atom       -0.002242      0.000195      0.000745
    26   Atom       -0.001292      0.002470     -0.001935
 --------------------------------------------------------


 ---------------------------------------------------------------------------------
              Anisotropic Spin Dipole Couplings in Principal Axis System
 ---------------------------------------------------------------------------------

       Atom             a.u.   MegaHertz   Gauss  10(-4) cm-1        Axes

              Baa    -0.4900   -65.754   -23.463   -21.933 -0.6151  0.7568 -0.2212
     5 C(13)  Bbb    -0.4832   -64.843   -23.138   -21.629 -0.3182  0.0184  0.9479
              Bcc     0.9732   130.597    46.600    43.562  0.7214  0.6534  0.2295
 
              Baa    -0.0214    -2.865    -1.022    -0.956 -0.3172  0.0171  0.9482
     6 C(13)  Bbb    -0.0169    -2.268    -0.809    -0.756 -0.0292  0.9992 -0.0278
              Bcc     0.0383     5.133     1.832     1.712  0.9479  0.0366  0.3164
 
              Baa    -0.0343    -4.604    -1.643    -1.536 -0.3163  0.0153  0.9485
     7 C(13)  Bbb    -0.0335    -4.491    -1.602    -1.498 -0.3902  0.9093 -0.1448
              Bcc     0.0678     9.095     3.245     3.034  0.8647  0.4159  0.2816
 
              Baa    -0.0097    -1.301    -0.464    -0.434 -0.3163  0.0201  0.9485
     8 C(13)  Bbb    -0.0096    -1.294    -0.462    -0.432  0.3538  0.9301  0.0982
              Bcc     0.0193     2.595     0.926     0.866  0.8802 -0.3667  0.3013
 
              Baa    -0.0604   -32.229   -11.500   -10.750  0.3851 -0.6293  0.6750
    18 H(1)   Bbb    -0.0137    -7.297    -2.604    -2.434  0.8926  0.4397 -0.0994
              Bcc     0.0741    39.526    14.104    13.184 -0.2342  0.6408  0.7311
 
              Baa    -0.0604   -32.228   -11.500   -10.750  0.7068 -0.6468 -0.2865
    19 H(1)   Bbb    -0.0137    -7.297    -2.604    -2.434  0.6580  0.4524  0.6020
              Bcc     0.0741    39.525    14.103    13.184 -0.2598 -0.6139  0.7454
 
              Baa    -0.0110    -5.867    -2.093    -1.957  0.0016 -0.2623  0.9650
    20 H(1)   Bbb    -0.0093    -4.981    -1.777    -1.661  0.5771  0.7883  0.2133
              Bcc     0.0203    10.847     3.871     3.618  0.8166 -0.5566 -0.1527
 
              Baa    -0.0110    -5.867    -2.093    -1.957 -0.5789  0.2938  0.7606
    21 H(1)   Bbb    -0.0093    -4.981    -1.777    -1.661  0.5980  0.7871  0.1510
              Bcc     0.0203    10.847     3.871     3.618  0.5544 -0.5423  0.6313
 
              Baa    -0.0086    -4.589    -1.638    -1.531 -0.2792 -0.6561  0.7011
    22 H(1)   Bbb    -0.0035    -1.874    -0.669    -0.625  0.7864 -0.5753 -0.2251
              Bcc     0.0121     6.463     2.306     2.156  0.5510  0.4885  0.6766
 
              Baa    -0.0086    -4.588    -1.637    -1.530 -0.1915  0.6819  0.7059
    23 H(1)   Bbb    -0.0035    -1.874    -0.669    -0.625  0.4863 -0.5588  0.6718
              Bcc     0.0121     6.462     2.306     2.155  0.8525  0.4719 -0.2246
 
              Baa    -0.0025    -1.332    -0.475    -0.444 -0.3172  0.0176  0.9482
    24 H(1)   Bbb    -0.0011    -0.577    -0.206    -0.192 -0.1520  0.9860 -0.0692
              Bcc     0.0036     1.909     0.681     0.637  0.9361  0.1661  0.3101
 
              Baa    -0.0028    -1.521    -0.543    -0.507  0.2793  0.7002 -0.6571
    25 H(1)   Bbb    -0.0013    -0.699    -0.249    -0.233  0.2647  0.6017  0.7536
              Bcc     0.0042     2.220     0.792     0.740  0.9230 -0.3844 -0.0173
 
              Baa    -0.0028    -1.521    -0.543    -0.507 -0.1644  0.7248  0.6691
    26 H(1)   Bbb    -0.0013    -0.699    -0.249    -0.233  0.6715  0.5791 -0.4623
              Bcc     0.0042     2.220     0.792     0.740  0.7225 -0.3733  0.5819
 

 ---------------------------------------------------------------------------------

 CPIOFr:  IOpCl= 1 IRwI=-1 IRwCP=  731 ICalc=  4 LCPTot=      198083 Len1MO=      642874 IndFrg=     3412453
 CPIOFr:  IOpCl= 1 IRwI=-2 IRwCP=  731 ICalc=  0 LCPTot=      198083 Len1MO=      642874 IndFrg=      840957
 Counterpoise corrected energy =    -315.645935311699
                   BSSE energy =       0.000885298220
              sum of fragments =    -315.471326986051
           complexation energy =    -110.12 kcal/mole (raw)
           complexation energy =    -109.57 kcal/mole (corrected)
 1\1\GINC-R5I3N15\SP\UM062X\def2TZVP\C8H18\HMAYES\07-Jul-2019\0\\# m062
 x/Def2TZVP nosymm Counterpoise=2\\cp calculation from fragment pair [4
 , 5] and pe_linear.com\\0,1\C,0,-4.234193,0.0229,-1.417233\C,0,-2.9714
 85,-0.708464,-0.981194\C,0,-1.836849,0.24175,-0.618941\C,0,-0.56648,-0
 .475287,-0.180915\C,0,0.567477,0.475364,0.181077\C,0,1.837848,-0.24167
 3,0.619097\C,0,2.972487,0.708541,0.981343\C,0,4.235195,-0.022823,1.417
 382\H,0,-5.03485,-0.672254,-1.672207\H,0,-4.039743,0.645699,-2.292909\
 H,0,-4.598792,0.676642,-0.622131\H,0,-2.637769,-1.377486,-1.780249\H,0
 ,-3.193236,-1.347056,-0.120664\H,0,-2.16935,0.912546,0.18117\H,0,-1.61
 375,0.8823,-1.479556\H,0,-0.234924,-1.145876,-0.981385\H,0,-0.790525,-
 1.115646,0.679402\H,0,0.235923,1.145948,0.981551\H,0,0.791518,1.115728
 ,-0.679237\H,0,2.170345,-0.91247,-0.181016\H,0,1.614754,-0.882222,1.47
 9713\H,0,2.638773,1.377566,1.780396\H,0,3.194236,1.34713,0.12081\H,0,5
 .035853,0.672331,1.672353\H,0,4.599792,-0.676568,0.622281\H,0,4.040745
 ,-0.645619,2.29306\\Version=ES64L-G16RevB.01\HF=-157.7356635\S2=0.7543
 41\S2-1=0.\S2A=0.750014\RMSD=5.995e-09\Dipole=-0.0000005,0.0000003,0.0
 000009\Quadrupole=-0.7121396,-0.2659435,0.9780831,0.4637766,-0.6481967
 ,0.181698\PG=C01 [X(C8H18)]\\@


 YE HAVE SOWN MUCH, AND BRING IN LITTLE.
 YE EAT, BUT YE HAVE NOT ENOUGH.
 YE DRINK, BUT YE ARE NOT FILLED WITH DRINK.
 YE CLOTHE YOU, BUT THERE IS NONE WARM.
 AND HE THAT EARNETH WAGES EARNETH WAGES TO PUT
 IT INTO A BAG WITH HOLES.
                                     HAGGAI I,6
 Job cpu time:       0 days  0 hours 48 minutes 25.3 seconds.
 Elapsed time:       0 days  0 hours  1 minutes 22.0 seconds.
 File lengths (MBytes):  RWF=    163 Int=      0 D2E=      0 Chk=     36 Scr=      1
 Normal termination of Gaussian 16 at Sun Jul  7 12:10:38 2019.
