 Entering Gaussian System, Link 0=g16
 Initial command:
 /nopt/nrel/apps/gaussian/g16B/g16/l1.exe "/dev/shm/Gau-202993.inp" -scrdir="/dev/shm/"
 Default linda workers: r6i3n14
 Default is to use  36 SMP processors on each worker.
 Entering Link 1 = /nopt/nrel/apps/gaussian/g16B/g16/l1.exe PID=    202994.
  
 Copyright (c) 1988-2017, Gaussian, Inc.  All Rights Reserved.
  
 This is part of the Gaussian(R) 16 program.  It is based on
 the Gaussian(R) 09 system (copyright 2009, Gaussian, Inc.),
 the Gaussian(R) 03 system (copyright 2003, Gaussian, Inc.),
 the Gaussian(R) 98 system (copyright 1998, Gaussian, Inc.),
 the Gaussian(R) 94 system (copyright 1995, Gaussian, Inc.),
 the Gaussian 92(TM) system (copyright 1992, Gaussian, Inc.),
 the Gaussian 90(TM) system (copyright 1990, Gaussian, Inc.),
 the Gaussian 88(TM) system (copyright 1988, Gaussian, Inc.),
 the Gaussian 86(TM) system (copyright 1986, Carnegie Mellon
 University), and the Gaussian 82(TM) system (copyright 1983,
 Carnegie Mellon University). Gaussian is a federally registered
 trademark of Gaussian, Inc.
  
 This software contains proprietary and confidential information,
 including trade secrets, belonging to Gaussian, Inc.
  
 This software is provided under written license and may be
 used, copied, transmitted, or stored only in accord with that
 written license.
  
 The following legend is applicable only to US Government
 contracts under FAR:
  
                    RESTRICTED RIGHTS LEGEND
  
 Use, reproduction and disclosure by the US Government is
 subject to restrictions as set forth in subparagraphs (a)
 and (c) of the Commercial Computer Software - Restricted
 Rights clause in FAR 52.227-19.
  
 Gaussian, Inc.
 340 Quinnipiac St., Bldg. 40, Wallingford CT 06492
  
  
 ---------------------------------------------------------------
 Warning -- This program may not be used in any manner that
 competes with the business of Gaussian, Inc. or will provide
 assistance to any competitor of Gaussian, Inc.  The licensee
 of this program is prohibited from giving any competitor of
 Gaussian, Inc. access to this program.  By using this program,
 the user acknowledges that Gaussian, Inc. is engaged in the
 business of creating and licensing software in the field of
 computational chemistry and represents and warrants to the
 licensee that it is not a competitor of Gaussian, Inc. and that
 it will not use this program in any manner prohibited above.
 ---------------------------------------------------------------
  

 Cite this work as:
 Gaussian 16, Revision B.01,
 M. J. Frisch, G. W. Trucks, H. B. Schlegel, G. E. Scuseria, 
 M. A. Robb, J. R. Cheeseman, G. Scalmani, V. Barone, 
 G. A. Petersson, H. Nakatsuji, X. Li, M. Caricato, A. V. Marenich, 
 J. Bloino, B. G. Janesko, R. Gomperts, B. Mennucci, H. P. Hratchian, 
 J. V. Ortiz, A. F. Izmaylov, J. L. Sonnenberg, D. Williams-Young, 
 F. Ding, F. Lipparini, F. Egidi, J. Goings, B. Peng, A. Petrone, 
 T. Henderson, D. Ranasinghe, V. G. Zakrzewski, J. Gao, N. Rega, 
 G. Zheng, W. Liang, M. Hada, M. Ehara, K. Toyota, R. Fukuda, 
 J. Hasegawa, M. Ishida, T. Nakajima, Y. Honda, O. Kitao, H. Nakai, 
 T. Vreven, K. Throssell, J. A. Montgomery, Jr., J. E. Peralta, 
 F. Ogliaro, M. J. Bearpark, J. J. Heyd, E. N. Brothers, K. N. Kudin, 
 V. N. Staroverov, T. A. Keith, R. Kobayashi, J. Normand, 
 K. Raghavachari, A. P. Rendell, J. C. Burant, S. S. Iyengar, 
 J. Tomasi, M. Cossi, J. M. Millam, M. Klene, C. Adamo, R. Cammi, 
 J. W. Ochterski, R. L. Martin, K. Morokuma, O. Farkas, 
 J. B. Foresman, and D. J. Fox, Gaussian, Inc., Wallingford CT, 2016.
 
 ******************************************
 Gaussian 16:  ES64L-G16RevB.01 20-Dec-2017
                25-Jun-2019 
 ******************************************
 %RWF=/dev/shm/,5GB,/tmp/scratch/894010/,-1
 %NoSave
 %OldChk=pet_cp1.chk
 %Chk=/dev/shm/pet_cp1_def2.chk
 SetLPE:    new flags="-opt 'Tsnet.Node.lindarsharg: ssh'  -nodelist 'r6i3n14.ib0.cm.hpc.nrel.gov' -env GAUSS_MDEF=9663676416 -env GAUSS_EXEDIR="/nopt/nrel/apps/gaussian/g16B/g16/bsd:/nopt/nrel/apps/gaussian/g16B/g16/local:/nopt/nrel/apps/gaussian/g16B/g16/extras:/nopt/nrel/apps/gaussian/g16B/g16""
 Will use up to    1 processors via Linda.
 Copying data from "pet_cp1.chk" to current chk file "/dev/shm/pet_cp1_def2.chk"
 IOpt=  2 FromEx=T IUOpen= 4 IOptOp= 5 NList=   0 IFRang= 0 IUIn= 4 IUOut= 2.
 Default route: CacheSize=180224 MaxDisk=256GB
 ----------------------------------------------------------------------
 # geom=allcheck guess=read m062x/Def2TZVP nosymm scf=xqc opt=ReadFC fr
 eq=NoRaman
 ----------------------------------------------------------------------
 1/4=180224,10=3,18=20,19=15,26=3,29=7,38=1/1,3;
 2/4=180224,9=110,12=2,15=1,40=1/2;
 3/4=180224,5=44,7=101,11=2,14=-4,25=1,30=1,71=1,74=-55,116=-2/1,2,3;
 4/4=180224,5=1/1;
 5/4=180224,5=2,8=3,13=1,38=6/2,8;
 6/4=180224,7=2,8=2,9=2,10=2,28=1/1;
 7/4=180224,30=1/1,2,3,16;
 1/4=180224,18=20,19=15,26=3/3(2);
 2/4=180224,9=110,15=1/2;
 99/4=180224/99;
 2/4=180224,9=110,15=1/2;
 3/4=180224,5=44,7=101,11=2,14=-2,25=1,30=1,71=1,74=-55/1,2,3;
 4/4=180224,5=5,16=3,69=1/1;
 5/4=180224,5=2,8=3,13=1,38=5/2,8;
 7/4=180224,30=1/1,2,3,16;
 1/4=180224,18=20,19=15,26=3/3(-5);
 2/4=180224,9=110,15=1/2;
 6/4=180224,7=2,8=2,9=2,10=2,19=2,28=1/1;
 99/4=180224,9=1/99;
 Structure from the checkpoint file:  "/dev/shm/pet_cp1_def2.chk"
 --------------------------------------------------------
 from pet trimer from Brandon, opt with m062x/6-31+g(d,p)
 --------------------------------------------------------
 Charge =  0 Multiplicity = 2
 Redundant internal coordinates found in file.  (old form).
 O,0,3.3126432253,6.3968987112,-1.444873605
 H,0,4.233939683,6.1741345493,-1.2848696515
 C,0,-0.3708079594,2.456902344,4.9699601315
 H,0,-0.5917226248,1.5265971317,5.4744229391
 C,0,0.3822930134,2.4649387426,3.8082652283
 H,0,0.7652058535,1.5477647039,3.3804139208
 O,0,1.9039672861,2.6023720595,1.4390383259
 C,0,2.4550834176,4.8413889532,0.1824169013
 H,0,1.9484851015,4.2582545468,-0.5873702876
 H,0,3.4287238793,4.3827673081,0.3717732256
 C,0,2.5926663477,6.2918772384,-0.2354632596
 H,0,1.6058376138,6.7148156414,-0.4233224836
 H,0,3.0594692007,6.8699255128,0.5684230562
 C,0,0.6591456163,3.6688821144,3.1683340805
 C,0,1.4756168609,3.6164722862,1.9196850585
 O,0,-1.8717753506,2.4960174048,7.2730163413
 C,0,-0.8464495323,3.6580120716,5.4900944918
 C,0,-1.6612278927,3.7120622875,6.7366156879
 O,0,1.68459501,4.8285220506,1.3874549516
 C,0,0.1829352534,4.8696937891,3.6882173035
 H,0,0.4036485546,5.7990532188,3.1819298184
 C,0,-0.5699443508,4.8622485582,4.8500511256
 H,0,-0.9530870838,5.7797419691,5.2770370349
 O,0,-2.0909795495,4.7211844326,7.2238951962
 O,0,-3.3921131024,-1.2027073392,10.2664678098
 C,0,-2.7537134665,1.0495457769,8.8860271435
 H,0,-1.7755839884,0.6159851962,9.0948274697
 H,0,-3.2614119416,0.4474192585,8.1323837335
 C,0,-3.7478197613,-0.1387294593,10.6290232536
 C,0,-2.6479489209,2.4959968104,8.4697710232
 H,0,-2.1538427626,3.0943168059,9.2359878934
 H,0,-3.6312399215,2.9266699745,8.2777164453
 O,0,-3.5413477079,1.0463053502,10.1026296966
 Recover connectivity data from disk.

 GradGradGradGradGradGradGradGradGradGradGradGradGradGradGradGradGradGrad
 Berny optimization.
 Initialization pass.
 Force constant matrix read from checkpoint file:
 "/dev/shm/pet_cp1_def2.chk"
                           ----------------------------
                           !    Initial Parameters    !
                           ! (Angstroms and Degrees)  !
 --------------------------                            --------------------------
 ! Name  Definition              Value          Derivative Info.                !
 --------------------------------------------------------------------------------
 ! R1    R(1,2)                  0.9613         D2E/DX2 =    0.5446             !
 ! R2    R(1,11)                 1.4114         D2E/DX2 =    0.378              !
 ! R3    R(3,4)                  1.0811         D2E/DX2 =    0.3697             !
 ! R4    R(3,5)                  1.3845         D2E/DX2 =    0.4117             !
 ! R5    R(3,17)                 1.3926         D2E/DX2 =    0.3964             !
 ! R6    R(5,6)                  1.0821         D2E/DX2 =    0.3675             !
 ! R7    R(5,14)                 1.3913         D2E/DX2 =    0.3992             !
 ! R8    R(7,15)                 1.2012         D2E/DX2 =    0.8782             !
 ! R9    R(8,9)                  1.0905         D2E/DX2 =    0.3438             !
 ! R10   R(8,10)                 1.0928         D2E/DX2 =    0.3381             !
 ! R11   R(8,11)                 1.5157         D2E/DX2 =    0.298              !
 ! R12   R(8,19)                 1.4304         D2E/DX2 =    0.3391             !
 ! R13   R(11,12)                1.09           D2E/DX2 =    0.3447             !
 ! R14   R(11,13)                1.0947         D2E/DX2 =    0.3319             !
 ! R15   R(14,15)                1.4928         D2E/DX2 =    0.3202             !
 ! R16   R(14,20)                1.3925         D2E/DX2 =    0.3965             !
 ! R17   R(15,19)                1.3402         D2E/DX2 =    0.4271             !
 ! R18   R(16,18)                1.3457         D2E/DX2 =    0.4146             !
 ! R19   R(16,30)                1.4264         D2E/DX2 =    0.3492             !
 ! R20   R(17,18)                1.4902         D2E/DX2 =    0.3226             !
 ! R21   R(17,22)                1.3915         D2E/DX2 =    0.3991             !
 ! R22   R(18,24)                1.2002         D2E/DX2 =    0.8829             !
 ! R23   R(20,21)                1.0811         D2E/DX2 =    0.3698             !
 ! R24   R(20,22)                1.3845         D2E/DX2 =    0.4117             !
 ! R25   R(22,23)                1.0821         D2E/DX2 =    0.3674             !
 ! R26   R(25,29)                1.179          D2E/DX2 =    0.9575             !
 ! R27   R(26,27)                1.0901         D2E/DX2 =    0.3451             !
 ! R28   R(26,28)                1.0901         D2E/DX2 =    0.345              !
 ! R29   R(26,30)                1.5089         D2E/DX2 =    0.3144             !
 ! R30   R(26,33)                1.4493         D2E/DX2 =    0.3017             !
 ! R31   R(29,33)                1.313          D2E/DX2 =    0.4353             !
 ! R32   R(30,31)                1.0905         D2E/DX2 =    0.344              !
 ! R33   R(30,32)                1.0905         D2E/DX2 =    0.3441             !
 ! A1    A(2,1,11)             109.2101         D2E/DX2 =    0.1808             !
 ! A2    A(4,3,5)              120.5101         D2E/DX2 =    0.0823             !
 ! A3    A(4,3,17)             119.8749         D2E/DX2 =    0.0823             !
 ! A4    A(5,3,17)             119.615          D2E/DX2 =    0.0832             !
 ! A5    A(3,5,6)              121.2884         D2E/DX2 =    0.0805             !
 ! A6    A(3,5,14)             119.9481         D2E/DX2 =    0.0835             !
 ! A7    A(6,5,14)             118.7634         D2E/DX2 =    0.0819             !
 ! A8    A(9,8,10)             108.1675         D2E/DX2 =    0.0293             !
 ! A9    A(9,8,11)             111.055          D2E/DX2 =    0.0664             !
 ! A10   A(9,8,19)             109.855          D2E/DX2 =    0.0599             !
 ! A11   A(10,8,11)            111.6241         D2E/DX2 =    0.0676             !
 ! A12   A(10,8,19)            109.2798         D2E/DX2 =    0.0607             !
 ! A13   A(11,8,19)            106.844          D2E/DX2 =    0.1554             !
 ! A14   A(1,11,8)             110.7166         D2E/DX2 =    0.1527             !
 ! A15   A(1,11,12)            106.576          D2E/DX2 =    0.0596             !
 ! A16   A(1,11,13)            111.8666         D2E/DX2 =    0.0644             !
 ! A17   A(8,11,12)            109.6738         D2E/DX2 =    0.0719             !
 ! A18   A(8,11,13)            109.9729         D2E/DX2 =    0.0723             !
 ! A19   A(12,11,13)           107.9241         D2E/DX2 =    0.0285             !
 ! A20   A(5,14,15)            117.5928         D2E/DX2 =    0.1442             !
 ! A21   A(5,14,20)            120.4285         D2E/DX2 =    0.0886             !
 ! A22   A(15,14,20)           121.9788         D2E/DX2 =    0.1455             !
 ! A23   A(7,15,14)            124.0119         D2E/DX2 =    0.1835             !
 ! A24   A(7,15,19)            123.2996         D2E/DX2 =    0.2289             !
 ! A25   A(14,15,19)           112.6884         D2E/DX2 =    0.2052             !
 ! A26   A(18,16,30)           114.8084         D2E/DX2 =    0.3256             !
 ! A27   A(3,17,18)            122.0358         D2E/DX2 =    0.1459             !
 ! A28   A(3,17,22)            120.4469         D2E/DX2 =    0.0887             !
 ! A29   A(18,17,22)           117.5173         D2E/DX2 =    0.1443             !
 ! A30   A(16,18,17)           112.7189         D2E/DX2 =    0.2055             !
 ! A31   A(16,18,24)           122.8164         D2E/DX2 =    0.2297             !
 ! A32   A(17,18,24)           124.4647         D2E/DX2 =    0.1829             !
 ! A33   A(8,19,15)            115.2592         D2E/DX2 =    0.3204             !
 ! A34   A(14,20,21)           119.7793         D2E/DX2 =    0.0822             !
 ! A35   A(14,20,22)           119.6467         D2E/DX2 =    0.0832             !
 ! A36   A(21,20,22)           120.574          D2E/DX2 =    0.082              !
 ! A37   A(17,22,20)           119.9148         D2E/DX2 =    0.0835             !
 ! A38   A(17,22,23)           118.8112         D2E/DX2 =    0.082              !
 ! A39   A(20,22,23)           121.274          D2E/DX2 =    0.0806             !
 ! A40   A(27,26,28)           109.3075         D2E/DX2 =    0.0302             !
 ! A41   A(27,26,30)           111.7909         D2E/DX2 =    0.0662             !
 ! A42   A(27,26,33)           109.0236         D2E/DX2 =    0.0585             !
 ! A43   A(28,26,30)           111.8041         D2E/DX2 =    0.066              !
 ! A44   A(28,26,33)           109.0267         D2E/DX2 =    0.0583             !
 ! A45   A(30,26,33)           105.7723         D2E/DX2 =    0.1548             !
 ! A46   A(25,29,33)           130.0724         D2E/DX2 =    0.3367             !
 ! A47   A(16,30,26)           105.6412         D2E/DX2 =    0.1592             !
 ! A48   A(16,30,31)           110.056          D2E/DX2 =    0.0594             !
 ! A49   A(16,30,32)           110.0522         D2E/DX2 =    0.0595             !
 ! A50   A(26,30,31)           111.3393         D2E/DX2 =    0.0682             !
 ! A51   A(26,30,32)           111.3443         D2E/DX2 =    0.0683             !
 ! A52   A(31,30,32)           108.3974         D2E/DX2 =    0.0297             !
 ! A53   A(26,33,29)           115.0878         D2E/DX2 =    0.2665             !
 ! D1    D(2,1,11,8)           -70.3474         D2E/DX2 =    0.0174             !
 ! D2    D(2,1,11,12)          170.4356         D2E/DX2 =    0.0238             !
 ! D3    D(2,1,11,13)           52.6962         D2E/DX2 =    0.0227             !
 ! D4    D(4,3,5,6)             -0.01           D2E/DX2 =    0.0096             !
 ! D5    D(4,3,5,14)           179.9738         D2E/DX2 =    0.0085             !
 ! D6    D(17,3,5,6)          -179.9897         D2E/DX2 =    0.0087             !
 ! D7    D(17,3,5,14)           -0.0058         D2E/DX2 =    0.0088             !
 ! D8    D(4,3,17,18)            0.0398         D2E/DX2 =    0.0077             !
 ! D9    D(4,3,17,22)         -179.9585         D2E/DX2 =    0.0074             !
 ! D10   D(5,3,17,18)         -179.9804         D2E/DX2 =    0.0073             !
 ! D11   D(5,3,17,22)            0.0213         D2E/DX2 =    0.0077             !
 ! D12   D(3,5,14,15)         -179.9992         D2E/DX2 =    0.0071             !
 ! D13   D(3,5,14,20)           -0.0246         D2E/DX2 =    0.0076             !
 ! D14   D(6,5,14,15)           -0.0149         D2E/DX2 =    0.008              !
 ! D15   D(6,5,14,20)          179.9596         D2E/DX2 =    0.0073             !
 ! D16   D(9,8,11,1)           -58.569          D2E/DX2 =    0.0182             !
 ! D17   D(9,8,11,12)           58.7624         D2E/DX2 =    0.0182             !
 ! D18   D(9,8,11,13)          177.2972         D2E/DX2 =    0.016              !
 ! D19   D(10,8,11,1)           62.2282         D2E/DX2 =    0.0181             !
 ! D20   D(10,8,11,12)         179.5597         D2E/DX2 =    0.0161             !
 ! D21   D(10,8,11,13)         -61.9055         D2E/DX2 =    0.0181             !
 ! D22   D(19,8,11,1)         -178.3578         D2E/DX2 =    0.0194             !
 ! D23   D(19,8,11,12)         -61.0263         D2E/DX2 =    0.0181             !
 ! D24   D(19,8,11,13)          57.5085         D2E/DX2 =    0.0181             !
 ! D25   D(9,8,19,15)           60.3624         D2E/DX2 =    0.0234             !
 ! D26   D(10,8,19,15)         -58.1608         D2E/DX2 =    0.0233             !
 ! D27   D(11,8,19,15)        -179.079          D2E/DX2 =    0.0182             !
 ! D28   D(5,14,15,7)            0.0132         D2E/DX2 =    0.0148             !
 ! D29   D(5,14,15,19)        -179.8854         D2E/DX2 =    0.014              !
 ! D30   D(20,14,15,7)        -179.9609         D2E/DX2 =    0.0135             !
 ! D31   D(20,14,15,19)          0.1405         D2E/DX2 =    0.0142             !
 ! D32   D(5,14,20,21)        -179.9495         D2E/DX2 =    0.0074             !
 ! D33   D(5,14,20,22)           0.0397         D2E/DX2 =    0.0076             !
 ! D34   D(15,14,20,21)          0.0239         D2E/DX2 =    0.0077             !
 ! D35   D(15,14,20,22)       -179.987          D2E/DX2 =    0.0073             !
 ! D36   D(7,15,19,8)            0.4822         D2E/DX2 =    0.0224             !
 ! D37   D(14,15,19,8)        -179.6183         D2E/DX2 =    0.0212             !
 ! D38   D(30,16,18,17)        179.9923         D2E/DX2 =    0.021              !
 ! D39   D(30,16,18,24)          0.0121         D2E/DX2 =    0.0222             !
 ! D40   D(18,16,30,26)       -179.9724         D2E/DX2 =    0.0187             !
 ! D41   D(18,16,30,31)        -59.6747         D2E/DX2 =    0.0243             !
 ! D42   D(18,16,30,32)         59.726          D2E/DX2 =    0.0243             !
 ! D43   D(3,17,18,16)          -0.0997         D2E/DX2 =    0.0141             !
 ! D44   D(3,17,18,24)         179.8801         D2E/DX2 =    0.0136             !
 ! D45   D(22,17,18,16)        179.8986         D2E/DX2 =    0.014              !
 ! D46   D(22,17,18,24)         -0.1216         D2E/DX2 =    0.0148             !
 ! D47   D(3,17,22,20)          -0.0062         D2E/DX2 =    0.0076             !
 ! D48   D(3,17,22,23)         179.9713         D2E/DX2 =    0.0073             !
 ! D49   D(18,17,22,20)        179.9954         D2E/DX2 =    0.007              !
 ! D50   D(18,17,22,23)         -0.0271         D2E/DX2 =    0.008              !
 ! D51   D(14,20,22,17)         -0.0241         D2E/DX2 =    0.0088             !
 ! D52   D(14,20,22,23)        179.999          D2E/DX2 =    0.0086             !
 ! D53   D(21,20,22,17)        179.9649         D2E/DX2 =    0.0085             !
 ! D54   D(21,20,22,23)         -0.012          D2E/DX2 =    0.0096             !
 ! D55   D(27,26,30,16)         61.4291         D2E/DX2 =    0.0182             !
 ! D56   D(27,26,30,31)        -58.0245         D2E/DX2 =    0.0183             !
 ! D57   D(27,26,30,32)       -179.1192         D2E/DX2 =    0.0162             !
 ! D58   D(28,26,30,16)        -61.4901         D2E/DX2 =    0.0181             !
 ! D59   D(28,26,30,31)        179.0563         D2E/DX2 =    0.0162             !
 ! D60   D(28,26,30,32)         57.9616         D2E/DX2 =    0.0183             !
 ! D61   D(33,26,30,16)        179.9641         D2E/DX2 =    0.0194             !
 ! D62   D(33,26,30,31)         60.5105         D2E/DX2 =    0.018              !
 ! D63   D(33,26,30,32)        -60.5842         D2E/DX2 =    0.0181             !
 ! D64   D(27,26,33,29)        -59.6314         D2E/DX2 =    0.0228             !
 ! D65   D(28,26,33,29)         59.6336         D2E/DX2 =    0.0227             !
 ! D66   D(30,26,33,29)       -179.9903         D2E/DX2 =    0.0174             !
 ! D67   D(25,29,33,26)          0.0073         D2E/DX2 =    0.0285             !
 --------------------------------------------------------------------------------
 Trust Radius=3.00D-01 FncErr=1.00D-07 GrdErr=1.00D-06 EigMax=2.50D+02 EigMin=1.00D-04
 Number of steps in this run=    163 maximum allowed number of steps=    198.
 GradGradGradGradGradGradGradGradGradGradGradGradGradGradGradGradGradGrad

                          Input orientation:                          
 ---------------------------------------------------------------------
 Center     Atomic      Atomic             Coordinates (Angstroms)
 Number     Number       Type             X           Y           Z
 ---------------------------------------------------------------------
      1          8           0        3.312643    6.396899   -1.444874
      2          1           0        4.233940    6.174135   -1.284870
      3          6           0       -0.370808    2.456902    4.969960
      4          1           0       -0.591723    1.526597    5.474423
      5          6           0        0.382293    2.464939    3.808265
      6          1           0        0.765206    1.547765    3.380414
      7          8           0        1.903967    2.602372    1.439038
      8          6           0        2.455083    4.841389    0.182417
      9          1           0        1.948485    4.258255   -0.587370
     10          1           0        3.428724    4.382767    0.371773
     11          6           0        2.592666    6.291877   -0.235463
     12          1           0        1.605838    6.714816   -0.423322
     13          1           0        3.059469    6.869926    0.568423
     14          6           0        0.659146    3.668882    3.168334
     15          6           0        1.475617    3.616472    1.919685
     16          8           0       -1.871775    2.496017    7.273016
     17          6           0       -0.846450    3.658012    5.490094
     18          6           0       -1.661228    3.712062    6.736616
     19          8           0        1.684595    4.828522    1.387455
     20          6           0        0.182935    4.869694    3.688217
     21          1           0        0.403649    5.799053    3.181930
     22          6           0       -0.569944    4.862249    4.850051
     23          1           0       -0.953087    5.779742    5.277037
     24          8           0       -2.090980    4.721184    7.223895
     25          8           0       -3.392113   -1.202707   10.266468
     26          6           0       -2.753713    1.049546    8.886027
     27          1           0       -1.775584    0.615985    9.094827
     28          1           0       -3.261412    0.447419    8.132384
     29          6           0       -3.747820   -0.138729   10.629023
     30          6           0       -2.647949    2.495997    8.469771
     31          1           0       -2.153843    3.094317    9.235988
     32          1           0       -3.631240    2.926670    8.277716
     33          8           0       -3.541348    1.046305   10.102630
 ---------------------------------------------------------------------
                    Distance matrix (angstroms):
                    1          2          3          4          5
     1  O    0.000000
     2  H    0.961256   0.000000
     3  C    8.381019   8.610715   0.000000
     4  H    9.318829   9.517072   1.081089   0.000000
     5  C    7.186288   7.384669   1.384471   2.145990   0.000000
     6  H    7.299790   7.429689   2.154928   2.495311   1.082075
     7  O    4.969884   5.060231   4.202758   4.865192   2.819152
     8  C    2.408961   2.663357   6.049133   6.948108   4.805284
     9  H    2.677693   3.062745   6.285532   7.117580   4.999055
    10  H    2.714849   2.569404   6.268072   7.096389   4.976775
    11  C    1.411407   1.951639   7.112359   8.090181   5.990238
    12  H    2.014404   2.818070   7.150136   8.156610   6.120854
    13  H    2.083558   2.301782   7.114429   8.121034   6.088330
    14  C    5.980369   6.235901   2.403239   3.387049   1.391272
    15  C    4.735577   4.941574   3.749409   4.612768   2.467412
    16  O   10.867229  11.137581   2.749273   2.411068   4.133557
    17  C    8.537759   8.834102   1.392638   2.146639   2.400371
    18  C    9.944069  10.254708   2.522237   2.741027   3.782398
    19  O    3.623870   3.930795   4.762731   5.726049   3.625305
    20  C    6.202907   6.545517   2.787662   3.868710   2.415989
    21  H    5.497907   5.896110   3.868696   4.949765   3.392502
    22  C    7.553523   7.901620   2.416552   3.393654   2.781936
    23  H    7.985075   8.373733   3.387419   4.273030   3.863735
    24  O   10.351556  10.701156   3.628524   3.938758   4.782703
    25  O   15.487520  15.684638   7.111541   6.185061   8.331035
    26  C   13.119542  13.361731   4.795255   4.067041   6.133640
    27  H   13.053517  13.219134   4.730423   3.916385   6.001900
    28  H   13.051374  13.328924   4.732287   3.918753   6.003746
    29  C   15.438379  15.668490   7.082832   6.269303   8.388067
    30  C   12.208434  12.491681   4.175593   3.760307   5.559943
    31  H   12.444690  12.687690   4.667387   4.364325   6.023975
    32  H   12.441413  12.800396   4.668228   4.365469   6.024752
    33  O   14.455133  14.711386   6.195676   5.509198   7.551589
                    6          7          8          9         10
     6  H    0.000000
     7  O    2.485541   0.000000
     8  C    4.891915   2.626028   0.000000
     9  H    4.948759   2.617300   1.090532   0.000000
    10  H    4.917671   2.575606   1.092779   1.768210   0.000000
    11  C    6.238652   4.109831   1.515740   2.162043   2.170813
    12  H    6.470973   4.524319   2.144264   2.485762   3.064888
    13  H    6.441765   4.506126   2.151568   3.064469   2.522098
    14  C    2.134330   2.382748   3.676393   4.014358   4.000119
    15  C    2.630202   1.201210   2.340486   2.630744   2.607272
    16  O    4.796374   6.950025   8.631285   8.915467   8.904059
    17  C    3.391361   5.009014   6.361756   6.716214   6.708173
    18  C    4.672885   6.481231   7.821568   8.183467   8.177327
    19  O    3.947218   2.237527   1.430362   2.072385   2.066952
    20  C    3.386590   3.627879   4.177810   4.666013   4.665945
    21  H    4.271250   3.937943   3.758003   4.355250   4.365080
    22  C    3.863711   4.781453   5.562197   6.022694   6.022809
    23  H    4.945639   5.743577   6.200910   6.717538   6.724092
    24  O    5.744627   7.342584   8.382336   8.806103   8.805295
    25  O    8.500949  10.974999  13.130457  13.272147  13.252408
    26  C    6.553075   8.919804  10.828780  11.052228  11.037455
    27  H    6.322843   8.723299  10.732364  10.994534  10.833519
    28  H    6.325000   8.725012  10.732533  10.848945  10.975972
    29  C    8.703677  11.131584  13.130467  13.326246  13.310067
    30  C    6.200833   8.376303  10.011096  10.308471  10.298710
    31  H    6.723125   8.803423  10.308327  10.708978  10.554594
    32  H    6.724112   8.804045  10.307442  10.559177  10.698937
    33  O    7.999128  10.350392  12.197150  12.439091  12.425918
                   11         12         13         14         15
    11  C    0.000000
    12  H    1.089954   0.000000
    13  H    1.094659   1.766540   0.000000
    14  C    4.712159   4.803533   4.771558   0.000000
    15  C    3.612514   3.886692   3.862571   1.492815   0.000000
    16  O    9.524550   9.440640   9.402118   4.962821   6.412379
    17  C    7.179608   7.094100   7.056588   2.767220   4.259289
    18  C    8.565100   8.423477   8.384729   4.256599   5.749065
    19  O    2.366403   2.615955   2.593920   2.359627   1.340151
    20  C    4.819199   4.725874   4.691321   1.392481   2.523746
    21  H    4.088184   3.909185   3.876928   2.145482   2.739715
    22  C    6.156980   5.997875   5.961187   2.400616   3.784617
    23  H    6.574368   6.317955   6.281732   3.391409   4.674414
    24  O    8.946823   8.724733   8.685593   5.011797   6.486574
    25  O   14.222410  14.210500  14.171887   9.514651  10.797596
    26  C   11.801161  11.737332  11.698395   7.155456   8.544371
    27  H   11.762299  11.799361  11.627084   7.097282   8.429466
    28  H   11.766426  11.669211  11.765017   7.098618   8.430893
    29  C   14.127687  14.063679  14.024126   9.464731  10.827668
    30  C   10.846836  10.722884  10.683500   6.357497   7.820670
    31  H   11.066261  10.979321  10.796320   6.712634   8.183759
    32  H   11.069592  10.839055  10.942946   6.712978   8.184154
    33  O   13.115575  13.016190  12.976380   8.520945   9.936613
                   16         17         18         19         20
    16  O    0.000000
    17  C    2.362273   0.000000
    18  C    1.345668   1.490168   0.000000
    19  O    7.261417   4.960638   6.407381   0.000000
    20  C    4.765182   2.403033   3.746169   2.747760   0.000000
    21  H    5.729275   3.387392   4.610319   2.408920   1.081088
    22  C    3.628302   1.391509   2.464336   4.132028   1.384464
    23  H    3.951047   2.135065   2.628142   4.794897   2.154781
    24  O    2.236478   2.384377   1.200190   6.952015   4.206395
    25  O    4.995272   7.274664   6.293710  11.873734   9.639938
    26  C    2.339209   4.687655   3.592003   9.497780   7.087642
    27  H    2.619689   4.807423   3.893576   9.440439   7.152711
    28  H    2.620373   4.808497   3.894439   9.441987   7.153367
    29  C    4.660924   7.017249   5.859462  11.814876   9.418595
    30  C    1.426418   3.670715   2.335864   8.623851   6.042483
    31  H    2.071420   4.007337   2.621286   8.907331   6.276166
    32  H    2.071376   4.007587   2.621599   8.907909   6.275888
    33  O    3.591079   5.946341   4.687340  10.842966   8.344655
                   21         22         23         24         25
    21  H    0.000000
    22  C    2.146652   0.000000
    23  H    2.496113   1.082086   0.000000
    24  O    4.870570   2.822868   2.491104   0.000000
    25  O   10.659415   8.607316   8.921764   6.785476   0.000000
    26  C    8.066194   5.966125   6.216255   4.084462   2.717686
    27  H    8.159388   6.123924   6.474288   4.522447   2.700657
    28  H    8.159635   6.124412   6.474182   4.523310   2.700799
    29  C   10.389954   8.276786   8.454738   6.161070   1.178992
    30  C    6.941448   4.797877   4.883553   2.610341   4.178793
    31  H    7.106897   4.987059   4.932202   2.588275   4.589076
    32  H    7.106191   4.986671   4.931186   2.589058   4.589561
    33  O    9.276190   7.140045   7.238153   4.888294   2.259905
                   26         27         28         29         30
    26  C    0.000000
    27  H    1.090096   0.000000
    28  H    1.090088   1.778313   0.000000
    29  C    2.332012   2.610185   2.610244   0.000000
    30  C    1.508866   2.164754   2.164910   3.579646   0.000000
    31  H    2.159492   2.511002   3.074202   3.864440   1.090512
    32  H    2.159558   3.074149   2.510892   3.865088   1.090516
    33  O    1.449310   2.078163   2.078196   1.313023   2.359236
                   31         32         33
    31  H    0.000000
    32  H    1.768924   0.000000
    33  O    2.621181   2.621862   0.000000
 Symmetry turned off by external request.
 Stoichiometry    C13H13O7(2)
 Framework group  C1[X(C13H13O7)]
 Deg. of freedom    93
 Full point group                 C1      NOp   1
 Rotational constants (GHZ):           1.2934349           0.0842196           0.0792444
 Standard basis: def2TZVP (5D, 7F)
   698 basis functions,  1124 primitive gaussians,   798 cartesian basis functions
    74 alpha electrons       73 beta electrons
       nuclear repulsion energy      1405.0303567868 Hartrees.
 NAtoms=   33 NActive=   33 NUniq=   33 SFac= 1.00D+00 NAtFMM=   60 NAOKFM=F Big=F
 Integral buffers will be    131072 words long.
 Raffenetti 2 integral format.
 Two-electron integral symmetry is turned off.
 One-electron integrals computed using PRISM.
   1 Symmetry operations used in ECPInt.
 ECPInt:  NShTT=   37128 NPrTT=  114960 LenC2=   27782 LenP2D=   60627.
 LDataN:  DoStor=T MaxTD1= 6 Len=  172
 NBasis=   698 RedAO= T EigKep=  6.94D-06  NBF=   698
 NBsUse=   698 1.00D-06 EigRej= -1.00D+00 NBFU=   698
 Initial guess from the checkpoint file:  "/dev/shm/pet_cp1_def2.chk"
 B after Tr=     0.000000    0.000000    0.000000
         Rot=    1.000000    0.000000    0.000000    0.000000 Ang=   0.00 deg.
 Initial guess <Sx>= 0.0000 <Sy>= 0.0000 <Sz>= 0.5000 <S**2>= 0.7544 S= 0.5022
 Requested convergence on RMS density matrix=1.00D-08 within  32 cycles.
 Requested convergence on MAX density matrix=1.00D-06.
 Requested convergence on             energy=1.00D-06.
 No special actions if energy rises.
 SCF Done:  E(UM062X) =  -1029.74313994     A.U. after   13 cycles
            NFock= 13  Conv=0.32D-08     -V/T= 2.0044
 <Sx>= 0.0000 <Sy>= 0.0000 <Sz>= 0.5000 <S**2>= 0.7544 S= 0.5022
 <L.S>= 0.000000000000E+00
 Annihilation of the first spin contaminant:
 S**2 before annihilation     0.7544,   after     0.7500
 QCSCF skips out because SCF is already converged.

 **********************************************************************

            Population analysis using the SCF Density.

 **********************************************************************

 Alpha  occ. eigenvalues --  -19.71495 -19.69705 -19.68899 -19.67377 -19.64114
 Alpha  occ. eigenvalues --  -19.63567 -19.62995 -10.69372 -10.69233 -10.68832
 Alpha  occ. eigenvalues --  -10.62807 -10.62130 -10.60558 -10.59928 -10.58153
 Alpha  occ. eigenvalues --  -10.58024 -10.57138 -10.57045 -10.56900 -10.56830
 Alpha  occ. eigenvalues --   -1.28211  -1.26356  -1.25633  -1.20060  -1.16740
 Alpha  occ. eigenvalues --   -1.16646  -1.15849  -0.99862  -0.92571  -0.90272
 Alpha  occ. eigenvalues --   -0.87563  -0.86881  -0.80428  -0.76388  -0.73437
 Alpha  occ. eigenvalues --   -0.71589  -0.70507  -0.68042  -0.66334  -0.64639
 Alpha  occ. eigenvalues --   -0.62671  -0.62659  -0.61141  -0.60786  -0.59386
 Alpha  occ. eigenvalues --   -0.58526  -0.58264  -0.57760  -0.57451  -0.54532
 Alpha  occ. eigenvalues --   -0.53599  -0.52975  -0.52648  -0.52387  -0.51756
 Alpha  occ. eigenvalues --   -0.50133  -0.48607  -0.47632  -0.47287  -0.46288
 Alpha  occ. eigenvalues --   -0.45381  -0.45214  -0.45051  -0.42728  -0.41800
 Alpha  occ. eigenvalues --   -0.41721  -0.40192  -0.39311  -0.38089  -0.37712
 Alpha  occ. eigenvalues --   -0.37024  -0.33923  -0.33609  -0.30812
 Alpha virt. eigenvalues --   -0.05538  -0.00209   0.03660   0.04027   0.04633
 Alpha virt. eigenvalues --    0.05542   0.06978   0.08290   0.09154   0.09516
 Alpha virt. eigenvalues --    0.10304   0.10703   0.11326   0.11754   0.11986
 Alpha virt. eigenvalues --    0.13482   0.13954   0.14926   0.15714   0.16264
 Alpha virt. eigenvalues --    0.16287   0.16755   0.17618   0.18561   0.18839
 Alpha virt. eigenvalues --    0.19441   0.20587   0.20890   0.21389   0.22271
 Alpha virt. eigenvalues --    0.22562   0.23235   0.24289   0.24678   0.24787
 Alpha virt. eigenvalues --    0.24920   0.25120   0.25444   0.26165   0.26244
 Alpha virt. eigenvalues --    0.27265   0.27637   0.28471   0.28985   0.29490
 Alpha virt. eigenvalues --    0.29682   0.29864   0.30777   0.32132   0.32893
 Alpha virt. eigenvalues --    0.33488   0.33841   0.35056   0.36127   0.36166
 Alpha virt. eigenvalues --    0.37075   0.37615   0.38160   0.38201   0.38711
 Alpha virt. eigenvalues --    0.38848   0.39430   0.41002   0.41167   0.41473
 Alpha virt. eigenvalues --    0.41970   0.42129   0.42509   0.42950   0.43375
 Alpha virt. eigenvalues --    0.43439   0.43568   0.44653   0.44820   0.45108
 Alpha virt. eigenvalues --    0.45666   0.46375   0.47558   0.48167   0.49018
 Alpha virt. eigenvalues --    0.49595   0.49823   0.50127   0.51544   0.51841
 Alpha virt. eigenvalues --    0.52016   0.52757   0.53169   0.53646   0.54670
 Alpha virt. eigenvalues --    0.54892   0.55057   0.55433   0.56315   0.57566
 Alpha virt. eigenvalues --    0.58145   0.58499   0.60669   0.61380   0.61632
 Alpha virt. eigenvalues --    0.61842   0.62572   0.62885   0.63186   0.64061
 Alpha virt. eigenvalues --    0.64306   0.64943   0.66024   0.66534   0.66958
 Alpha virt. eigenvalues --    0.68679   0.69063   0.69663   0.69705   0.71174
 Alpha virt. eigenvalues --    0.72394   0.73315   0.73654   0.74046   0.75112
 Alpha virt. eigenvalues --    0.75583   0.75892   0.77270   0.78230   0.78830
 Alpha virt. eigenvalues --    0.79485   0.80263   0.80607   0.82484   0.82737
 Alpha virt. eigenvalues --    0.83350   0.84124   0.84718   0.85611   0.86089
 Alpha virt. eigenvalues --    0.86849   0.87444   0.87997   0.88513   0.88740
 Alpha virt. eigenvalues --    0.89627   0.90154   0.91202   0.92222   0.92579
 Alpha virt. eigenvalues --    0.93115   0.93232   0.94471   0.95037   0.95257
 Alpha virt. eigenvalues --    0.95978   0.96608   0.97358   0.99878   1.00387
 Alpha virt. eigenvalues --    1.02631   1.02898   1.04150   1.05781   1.06609
 Alpha virt. eigenvalues --    1.07485   1.08341   1.08931   1.09874   1.10399
 Alpha virt. eigenvalues --    1.12885   1.13735   1.14020   1.15268   1.17092
 Alpha virt. eigenvalues --    1.17408   1.19204   1.21623   1.22347   1.23641
 Alpha virt. eigenvalues --    1.24537   1.24955   1.25044   1.26781   1.29149
 Alpha virt. eigenvalues --    1.31008   1.31330   1.32187   1.33404   1.33888
 Alpha virt. eigenvalues --    1.36085   1.38326   1.38464   1.39897   1.40657
 Alpha virt. eigenvalues --    1.40901   1.41258   1.41573   1.43684   1.43909
 Alpha virt. eigenvalues --    1.44602   1.46271   1.46306   1.48160   1.49894
 Alpha virt. eigenvalues --    1.51817   1.52061   1.52982   1.53474   1.54502
 Alpha virt. eigenvalues --    1.54652   1.56080   1.56523   1.56595   1.57028
 Alpha virt. eigenvalues --    1.57888   1.58495   1.59795   1.60182   1.61026
 Alpha virt. eigenvalues --    1.61386   1.62023   1.62338   1.62555   1.63076
 Alpha virt. eigenvalues --    1.63234   1.63882   1.64527   1.65346   1.67981
 Alpha virt. eigenvalues --    1.68974   1.69571   1.72077   1.74177   1.74284
 Alpha virt. eigenvalues --    1.75554   1.76274   1.79464   1.79520   1.80123
 Alpha virt. eigenvalues --    1.82300   1.82689   1.83669   1.84517   1.85738
 Alpha virt. eigenvalues --    1.86582   1.86937   1.87772   1.88596   1.89563
 Alpha virt. eigenvalues --    1.90287   1.91177   1.92351   1.92619   1.93017
 Alpha virt. eigenvalues --    1.94837   1.96403   1.98651   1.98805   1.99130
 Alpha virt. eigenvalues --    1.99414   2.00100   2.01838   2.02810   2.03913
 Alpha virt. eigenvalues --    2.04645   2.04791   2.05247   2.05737   2.06603
 Alpha virt. eigenvalues --    2.06878   2.08660   2.09965   2.11670   2.13808
 Alpha virt. eigenvalues --    2.14750   2.15126   2.16760   2.17592   2.17691
 Alpha virt. eigenvalues --    2.17942   2.19932   2.22482   2.24850   2.26061
 Alpha virt. eigenvalues --    2.26586   2.28274   2.28748   2.29044   2.30190
 Alpha virt. eigenvalues --    2.31067   2.31628   2.32099   2.32180   2.33181
 Alpha virt. eigenvalues --    2.33591   2.36398   2.37092   2.37503   2.38929
 Alpha virt. eigenvalues --    2.39517   2.39992   2.42007   2.42853   2.43115
 Alpha virt. eigenvalues --    2.44517   2.45902   2.47105   2.49018   2.49940
 Alpha virt. eigenvalues --    2.51183   2.51253   2.51958   2.54808   2.55202
 Alpha virt. eigenvalues --    2.55446   2.56410   2.57969   2.58879   2.59877
 Alpha virt. eigenvalues --    2.60731   2.60977   2.61831   2.63570   2.64961
 Alpha virt. eigenvalues --    2.65180   2.65901   2.68030   2.68239   2.69631
 Alpha virt. eigenvalues --    2.69987   2.70253   2.70927   2.71198   2.71680
 Alpha virt. eigenvalues --    2.71906   2.72477   2.73143   2.73920   2.75731
 Alpha virt. eigenvalues --    2.76425   2.77042   2.78544   2.79868   2.80575
 Alpha virt. eigenvalues --    2.81911   2.82798   2.83194   2.83714   2.85365
 Alpha virt. eigenvalues --    2.85558   2.85771   2.86010   2.86433   2.87605
 Alpha virt. eigenvalues --    2.88596   2.89528   2.91269   2.91844   2.92361
 Alpha virt. eigenvalues --    2.93138   2.93810   2.94165   2.94548   2.95908
 Alpha virt. eigenvalues --    2.96159   2.96420   2.97292   2.97592   2.98994
 Alpha virt. eigenvalues --    2.99220   3.01670   3.02025   3.02656   3.03428
 Alpha virt. eigenvalues --    3.04198   3.05505   3.06430   3.08716   3.09327
 Alpha virt. eigenvalues --    3.09419   3.10720   3.12316   3.12836   3.14046
 Alpha virt. eigenvalues --    3.15077   3.15222   3.16291   3.16774   3.17076
 Alpha virt. eigenvalues --    3.18305   3.18635   3.18825   3.19494   3.21536
 Alpha virt. eigenvalues --    3.22252   3.23154   3.23767   3.23905   3.24773
 Alpha virt. eigenvalues --    3.25092   3.25542   3.25806   3.26890   3.28460
 Alpha virt. eigenvalues --    3.28659   3.29190   3.30112   3.31151   3.32339
 Alpha virt. eigenvalues --    3.33703   3.34401   3.34941   3.35794   3.36023
 Alpha virt. eigenvalues --    3.36786   3.37111   3.38443   3.39000   3.39336
 Alpha virt. eigenvalues --    3.40199   3.40750   3.41546   3.42140   3.43558
 Alpha virt. eigenvalues --    3.44051   3.44374   3.45925   3.46520   3.47339
 Alpha virt. eigenvalues --    3.47619   3.48615   3.49054   3.50081   3.51713
 Alpha virt. eigenvalues --    3.52240   3.52896   3.53723   3.54315   3.56053
 Alpha virt. eigenvalues --    3.56718   3.57805   3.59933   3.62238   3.63726
 Alpha virt. eigenvalues --    3.64597   3.65989   3.66262   3.66665   3.68827
 Alpha virt. eigenvalues --    3.71050   3.73807   3.75908   3.77671   3.80164
 Alpha virt. eigenvalues --    3.82060   3.82921   3.83049   3.84230   3.85318
 Alpha virt. eigenvalues --    3.86086   3.87965   3.89194   3.91277   3.91587
 Alpha virt. eigenvalues --    3.92651   3.93375   3.96382   3.98528   4.02207
 Alpha virt. eigenvalues --    4.03006   4.04803   4.05601   4.06085   4.08620
 Alpha virt. eigenvalues --    4.12037   4.14086   4.14641   4.16195   4.18208
 Alpha virt. eigenvalues --    4.18614   4.18844   4.19753   4.24411   4.25688
 Alpha virt. eigenvalues --    4.25819   4.26040   4.27617   4.29401   4.31621
 Alpha virt. eigenvalues --    4.33361   4.35385   4.36070   4.37297   4.43593
 Alpha virt. eigenvalues --    4.44192   4.45634   4.47100   4.49111   4.53740
 Alpha virt. eigenvalues --    4.54552   4.57106   4.59490   4.60205   4.62103
 Alpha virt. eigenvalues --    4.65464   4.69400   4.69697   4.73807   4.74202
 Alpha virt. eigenvalues --    4.76497   4.77247   4.79963   4.88774   4.89161
 Alpha virt. eigenvalues --    4.91346   4.96750   4.97271   5.07456   5.12952
 Alpha virt. eigenvalues --    5.13916   5.15283   5.17113   5.17573   5.21629
 Alpha virt. eigenvalues --    5.25197   5.26119   5.28573   5.28620   5.29365
 Alpha virt. eigenvalues --    5.31857   5.32273   5.33837   5.36001   5.37736
 Alpha virt. eigenvalues --    5.43331   5.45926   5.46438   5.49079   5.50067
 Alpha virt. eigenvalues --    5.50512   5.53664   5.54477   5.58529   5.62876
 Alpha virt. eigenvalues --    5.67169   5.67261   5.67413   5.68975   5.73078
 Alpha virt. eigenvalues --    5.75437   5.76545   5.86199   5.88479   5.90862
 Alpha virt. eigenvalues --    5.95116   5.97032   5.97054   5.97764   6.04002
 Alpha virt. eigenvalues --    6.13384   6.13990   6.16285   6.16934   6.17388
 Alpha virt. eigenvalues --    6.24162   6.25533   6.27783   6.29069   6.34072
 Alpha virt. eigenvalues --    6.34737   6.35617   6.41334   6.41968   6.43920
 Alpha virt. eigenvalues --    6.46502   6.53695   6.55832   6.57508   6.61082
 Alpha virt. eigenvalues --    6.63759   6.64245   6.64380   6.69196   6.69417
 Alpha virt. eigenvalues --    6.70564   6.73900   6.74146   6.74907   6.78194
 Alpha virt. eigenvalues --    6.83976   6.84952   6.86385   6.87330   6.91271
 Alpha virt. eigenvalues --    6.92720   6.94287   7.06339   7.06824   7.07603
 Alpha virt. eigenvalues --    7.10700   7.11870   7.14319   7.19109   7.23367
 Alpha virt. eigenvalues --    7.33715   7.34321   7.40970   7.43151  22.31692
 Alpha virt. eigenvalues --   22.46930  22.52373  22.61142  22.62061  22.80075
 Alpha virt. eigenvalues --   22.83001  22.83685  22.86350  22.99870  23.37326
 Alpha virt. eigenvalues --   23.51970  23.65045  43.79699  43.90063  44.06241
 Alpha virt. eigenvalues --   44.08739  44.18687  44.38981  44.45276
  Beta  occ. eigenvalues --  -19.71225 -19.69694 -19.68899 -19.66827 -19.64114
  Beta  occ. eigenvalues --  -19.63566 -19.62995 -10.69370 -10.68832 -10.68303
  Beta  occ. eigenvalues --  -10.62756 -10.62131 -10.60558 -10.59928 -10.58152
  Beta  occ. eigenvalues --  -10.58024 -10.57138 -10.57045 -10.56900 -10.56830
  Beta  occ. eigenvalues --   -1.26792  -1.26255  -1.25633  -1.18410  -1.16710
  Beta  occ. eigenvalues --   -1.16646  -1.15849  -0.99860  -0.92288  -0.90008
  Beta  occ. eigenvalues --   -0.87556  -0.86810  -0.79864  -0.76100  -0.73389
  Beta  occ. eigenvalues --   -0.71559  -0.70033  -0.67745  -0.65969  -0.64593
  Beta  occ. eigenvalues --   -0.62570  -0.62440  -0.61123  -0.59019  -0.58748
  Beta  occ. eigenvalues --   -0.58107  -0.57938  -0.57601  -0.55812  -0.54525
  Beta  occ. eigenvalues --   -0.53577  -0.52630  -0.52455  -0.52016  -0.51712
  Beta  occ. eigenvalues --   -0.49613  -0.48506  -0.47430  -0.46611  -0.45429
  Beta  occ. eigenvalues --   -0.45229  -0.45094  -0.43550  -0.42725  -0.41791
  Beta  occ. eigenvalues --   -0.41563  -0.40182  -0.39311  -0.38045  -0.37712
  Beta  occ. eigenvalues --   -0.37023  -0.33923  -0.33609
  Beta virt. eigenvalues --   -0.06241  -0.05537  -0.00209   0.03942   0.04632
  Beta virt. eigenvalues --    0.05479   0.05665   0.06993   0.08417   0.09222
  Beta virt. eigenvalues --    0.09601   0.10328   0.10838   0.11395   0.11733
  Beta virt. eigenvalues --    0.12005   0.13491   0.13979   0.14896   0.15706
  Beta virt. eigenvalues --    0.16250   0.16307   0.16731   0.17173   0.17870
  Beta virt. eigenvalues --    0.18760   0.19182   0.19607   0.20604   0.20922
  Beta virt. eigenvalues --    0.21615   0.21918   0.22577   0.22668   0.23932
  Beta virt. eigenvalues --    0.24710   0.24795   0.24931   0.25148   0.25714
  Beta virt. eigenvalues --    0.26246   0.27229   0.27650   0.28520   0.28985
  Beta virt. eigenvalues --    0.29391   0.29492   0.29741   0.30718   0.32222
  Beta virt. eigenvalues --    0.32869   0.33431   0.33583   0.35225   0.36124
  Beta virt. eigenvalues --    0.36181   0.37156   0.37603   0.38074   0.38287
  Beta virt. eigenvalues --    0.38605   0.38893   0.39435   0.41016   0.41216
  Beta virt. eigenvalues --    0.41451   0.41954   0.42089   0.42627   0.42938
  Beta virt. eigenvalues --    0.43395   0.43464   0.43639   0.44768   0.44832
  Beta virt. eigenvalues --    0.45108   0.45636   0.46356   0.47411   0.48073
  Beta virt. eigenvalues --    0.48998   0.49618   0.49816   0.50138   0.51548
  Beta virt. eigenvalues --    0.51863   0.51995   0.52750   0.53163   0.53631
  Beta virt. eigenvalues --    0.54642   0.54727   0.54997   0.55460   0.56318
  Beta virt. eigenvalues --    0.57547   0.57826   0.58468   0.60783   0.61447
  Beta virt. eigenvalues --    0.61625   0.61787   0.62701   0.63172   0.63433
  Beta virt. eigenvalues --    0.64294   0.64733   0.65031   0.66070   0.66539
  Beta virt. eigenvalues --    0.67062   0.68697   0.69087   0.69712   0.69748
  Beta virt. eigenvalues --    0.71177   0.72406   0.73264   0.73659   0.73994
  Beta virt. eigenvalues --    0.75119   0.75602   0.75898   0.77142   0.78055
  Beta virt. eigenvalues --    0.78827   0.79125   0.80230   0.80645   0.82509
  Beta virt. eigenvalues --    0.82711   0.83419   0.84073   0.84688   0.85608
  Beta virt. eigenvalues --    0.86036   0.86851   0.87448   0.88085   0.88671
  Beta virt. eigenvalues --    0.88809   0.89523   0.90105   0.91253   0.92238
  Beta virt. eigenvalues --    0.92630   0.93128   0.93257   0.94431   0.95126
  Beta virt. eigenvalues --    0.95316   0.96279   0.96607   0.97337   0.99948
  Beta virt. eigenvalues --    1.00405   1.02647   1.02910   1.04215   1.05806
  Beta virt. eigenvalues --    1.06672   1.07486   1.08342   1.08945   1.09912
  Beta virt. eigenvalues --    1.10441   1.12970   1.13708   1.14036   1.15292
  Beta virt. eigenvalues --    1.17111   1.17263   1.19278   1.21620   1.22493
  Beta virt. eigenvalues --    1.23659   1.24720   1.24962   1.25049   1.27428
  Beta virt. eigenvalues --    1.29760   1.31033   1.31396   1.32187   1.33405
  Beta virt. eigenvalues --    1.33903   1.36453   1.38359   1.38532   1.39917
  Beta virt. eigenvalues --    1.40899   1.41055   1.41578   1.42077   1.43627
  Beta virt. eigenvalues --    1.43986   1.44566   1.46366   1.48233   1.48632
  Beta virt. eigenvalues --    1.50007   1.51854   1.52112   1.52997   1.53724
  Beta virt. eigenvalues --    1.54625   1.54812   1.56177   1.56706   1.56804
  Beta virt. eigenvalues --    1.57101   1.58081   1.58659   1.60175   1.60421
  Beta virt. eigenvalues --    1.61255   1.61482   1.62047   1.62360   1.62563
  Beta virt. eigenvalues --    1.63109   1.63254   1.63908   1.64562   1.65349
  Beta virt. eigenvalues --    1.67989   1.68985   1.69576   1.72100   1.74184
  Beta virt. eigenvalues --    1.74296   1.75557   1.76465   1.79512   1.79667
  Beta virt. eigenvalues --    1.80203   1.82316   1.82704   1.83677   1.84558
  Beta virt. eigenvalues --    1.85756   1.86643   1.86948   1.87776   1.88608
  Beta virt. eigenvalues --    1.89588   1.90424   1.91254   1.92352   1.92656
  Beta virt. eigenvalues --    1.93163   1.95015   1.96519   1.98755   1.98880
  Beta virt. eigenvalues --    1.99204   1.99436   2.00129   2.01870   2.02934
  Beta virt. eigenvalues --    2.03960   2.04696   2.04826   2.05270   2.05740
  Beta virt. eigenvalues --    2.06615   2.06903   2.08689   2.09991   2.11688
  Beta virt. eigenvalues --    2.13830   2.14785   2.15138   2.16832   2.17657
  Beta virt. eigenvalues --    2.17760   2.18151   2.19979   2.22597   2.24853
  Beta virt. eigenvalues --    2.26121   2.26605   2.28290   2.28748   2.29060
  Beta virt. eigenvalues --    2.30387   2.31073   2.31705   2.32128   2.32635
  Beta virt. eigenvalues --    2.33193   2.33598   2.36536   2.37119   2.37598
  Beta virt. eigenvalues --    2.38930   2.39544   2.40090   2.42025   2.42974
  Beta virt. eigenvalues --    2.43182   2.44557   2.45934   2.47136   2.49034
  Beta virt. eigenvalues --    2.49955   2.51225   2.51864   2.52240   2.54827
  Beta virt. eigenvalues --    2.55235   2.55465   2.56438   2.58193   2.58883
  Beta virt. eigenvalues --    2.59973   2.60804   2.61011   2.61837   2.63579
  Beta virt. eigenvalues --    2.64967   2.65249   2.65952   2.68176   2.68479
  Beta virt. eigenvalues --    2.69702   2.69993   2.70410   2.71157   2.71282
  Beta virt. eigenvalues --    2.71786   2.72009   2.72891   2.73590   2.74785
  Beta virt. eigenvalues --    2.75841   2.76441   2.77141   2.79231   2.80027
  Beta virt. eigenvalues --    2.80690   2.82006   2.82955   2.83256   2.83810
  Beta virt. eigenvalues --    2.85580   2.85646   2.85841   2.86022   2.86565
  Beta virt. eigenvalues --    2.87658   2.88601   2.89683   2.91489   2.92558
  Beta virt. eigenvalues --    2.92835   2.93290   2.94543   2.94687   2.95367
  Beta virt. eigenvalues --    2.96000   2.96463   2.97190   2.97745   2.99524
  Beta virt. eigenvalues --    3.00456   3.00489   3.01734   3.02106   3.02989
  Beta virt. eigenvalues --    3.03624   3.04662   3.05671   3.06488   3.08799
  Beta virt. eigenvalues --    3.09462   3.10411   3.11848   3.12597   3.12986
  Beta virt. eigenvalues --    3.14261   3.15459   3.15537   3.16504   3.16903
  Beta virt. eigenvalues --    3.17892   3.18447   3.18788   3.19010   3.20732
  Beta virt. eigenvalues --    3.22269   3.22570   3.23430   3.23925   3.24008
  Beta virt. eigenvalues --    3.24842   3.25122   3.25619   3.26035   3.27201
  Beta virt. eigenvalues --    3.28567   3.29213   3.29350   3.30279   3.31389
  Beta virt. eigenvalues --    3.32538   3.33941   3.34457   3.35060   3.35980
  Beta virt. eigenvalues --    3.36496   3.37134   3.37428   3.38517   3.39019
  Beta virt. eigenvalues --    3.39615   3.40699   3.40799   3.41600   3.42228
  Beta virt. eigenvalues --    3.43739   3.44396   3.44591   3.46126   3.46597
  Beta virt. eigenvalues --    3.47484   3.47832   3.48678   3.49122   3.50225
  Beta virt. eigenvalues --    3.51915   3.52406   3.52948   3.53780   3.54360
  Beta virt. eigenvalues --    3.56144   3.56973   3.57933   3.60163   3.62244
  Beta virt. eigenvalues --    3.63817   3.64724   3.66204   3.66345   3.67472
  Beta virt. eigenvalues --    3.69281   3.71198   3.73977   3.75939   3.77695
  Beta virt. eigenvalues --    3.80186   3.82229   3.83055   3.84248   3.85019
  Beta virt. eigenvalues --    3.85342   3.86142   3.88107   3.89462   3.91500
  Beta virt. eigenvalues --    3.91706   3.92756   3.93413   3.96471   3.98544
  Beta virt. eigenvalues --    4.02402   4.03067   4.04820   4.05602   4.06576
  Beta virt. eigenvalues --    4.08669   4.12134   4.14105   4.14641   4.16292
  Beta virt. eigenvalues --    4.18258   4.18617   4.18855   4.19753   4.24412
  Beta virt. eigenvalues --    4.25709   4.25982   4.26096   4.27761   4.29476
  Beta virt. eigenvalues --    4.31806   4.33404   4.35607   4.36972   4.37299
  Beta virt. eigenvalues --    4.43634   4.44328   4.45728   4.47249   4.49228
  Beta virt. eigenvalues --    4.53758   4.54581   4.57255   4.59490   4.60206
  Beta virt. eigenvalues --    4.62118   4.65488   4.69469   4.69728   4.74039
  Beta virt. eigenvalues --    4.74365   4.77030   4.77427   4.80065   4.88776
  Beta virt. eigenvalues --    4.89172   4.91349   4.96755   4.97283   5.07458
  Beta virt. eigenvalues --    5.13270   5.13920   5.15543   5.17116   5.17573
  Beta virt. eigenvalues --    5.21635   5.25201   5.26123   5.28578   5.28659
  Beta virt. eigenvalues --    5.29372   5.31880   5.32283   5.33838   5.36047
  Beta virt. eigenvalues --    5.37843   5.43231   5.45927   5.46440   5.49084
  Beta virt. eigenvalues --    5.50067   5.50512   5.53673   5.54502   5.58533
  Beta virt. eigenvalues --    5.63026   5.67173   5.67281   5.67424   5.68978
  Beta virt. eigenvalues --    5.73078   5.75437   5.76624   5.86201   5.88657
  Beta virt. eigenvalues --    5.90865   5.95123   5.97042   5.97740   5.97797
  Beta virt. eigenvalues --    6.03922   6.13390   6.14034   6.16588   6.17194
  Beta virt. eigenvalues --    6.17404   6.24172   6.25533   6.27794   6.30536
  Beta virt. eigenvalues --    6.34076   6.34737   6.37239   6.41363   6.41968
  Beta virt. eigenvalues --    6.43920   6.47276   6.54061   6.56138   6.57553
  Beta virt. eigenvalues --    6.61237   6.63775   6.64245   6.64380   6.69181
  Beta virt. eigenvalues --    6.69608   6.70565   6.73904   6.74150   6.74907
  Beta virt. eigenvalues --    6.78194   6.83959   6.85788   6.86392   6.87330
  Beta virt. eigenvalues --    6.91286   6.92726   6.94287   7.06339   7.06834
  Beta virt. eigenvalues --    7.07991   7.10700   7.11877   7.14322   7.19259
  Beta virt. eigenvalues --    7.23743   7.33727   7.34322   7.40976   7.43153
  Beta virt. eigenvalues --   22.31693  22.47066  22.52373  22.61173  22.62062
  Beta virt. eigenvalues --   22.80075  22.83180  22.84458  22.86353  22.99871
  Beta virt. eigenvalues --   23.37326  23.51971  23.65046  43.79590  43.90063
  Beta virt. eigenvalues --   44.06241  44.08739  44.18669  44.38981  44.45276
          Condensed to atoms (all electrons):
               1          2          3          4          5          6
     1  O    8.021694   0.295484   0.000000   0.000000  -0.000001   0.000000
     2  H    0.295484   0.428116   0.000000   0.000000  -0.000000   0.000000
     3  C    0.000000   0.000000   5.037164   0.408263   0.462297  -0.030971
     4  H    0.000000   0.000000   0.408263   0.473273  -0.035195  -0.002490
     5  C   -0.000001  -0.000000   0.462297  -0.035195   5.058284   0.398820
     6  H    0.000000   0.000000  -0.030971  -0.002490   0.398820   0.454535
     7  O    0.000017  -0.000017   0.004833  -0.000047   0.025895   0.015340
     8  C   -0.029473  -0.005195  -0.000136  -0.000000  -0.000055  -0.000084
     9  H    0.007006  -0.001634   0.000001  -0.000000  -0.000112  -0.000007
    10  H    0.001565   0.005870   0.000011   0.000000  -0.000231  -0.000006
    11  C    0.232846  -0.035590  -0.000011   0.000000  -0.000109  -0.000009
    12  H   -0.034198   0.010959   0.000003   0.000000  -0.000018   0.000000
    13  H   -0.041141  -0.012607   0.000002  -0.000000  -0.000002   0.000000
    14  C    0.000070   0.000004  -0.048471   0.003847   0.448152  -0.015930
    15  C    0.001644   0.000083   0.001813  -0.000140  -0.055202  -0.012883
    16  O    0.000000   0.000000   0.025296   0.011572   0.000116  -0.000031
    17  C    0.000000  -0.000000   0.459117  -0.021066  -0.048004   0.004169
    18  C    0.000000   0.000000  -0.064911  -0.011977   0.005378  -0.000061
    19  O    0.004393  -0.000005   0.000134   0.000003   0.007892   0.000747
    20  C    0.000020   0.000003  -0.025165  -0.000215  -0.087531   0.007518
    21  H    0.000009  -0.000001  -0.000173   0.000060   0.005084  -0.000159
    22  C    0.000000   0.000000  -0.079415   0.005057  -0.019336  -0.001325
    23  H   -0.000000   0.000000   0.007529  -0.000162  -0.001406   0.000047
    24  O    0.000000   0.000000   0.007162   0.000309  -0.000242   0.000004
    25  O    0.000000   0.000000  -0.000001   0.000001  -0.000000  -0.000000
    26  C    0.000000   0.000000  -0.000686  -0.000450   0.000012  -0.000001
    27  H   -0.000000  -0.000000   0.000100   0.000100   0.000008  -0.000000
    28  H   -0.000000  -0.000000   0.000098   0.000099   0.000008  -0.000000
    29  C    0.000000  -0.000000  -0.000000   0.000001  -0.000000  -0.000000
    30  C    0.000000   0.000000  -0.002433  -0.000374  -0.000183   0.000004
    31  H   -0.000000  -0.000000   0.000410   0.000083   0.000017  -0.000000
    32  H   -0.000000   0.000000   0.000417   0.000084   0.000017  -0.000000
    33  O    0.000000   0.000000   0.000004   0.000007   0.000000  -0.000000
               7          8          9         10         11         12
     1  O    0.000017  -0.029473   0.007006   0.001565   0.232846  -0.034198
     2  H   -0.000017  -0.005195  -0.001634   0.005870  -0.035590   0.010959
     3  C    0.004833  -0.000136   0.000001   0.000011  -0.000011   0.000003
     4  H   -0.000047  -0.000000  -0.000000   0.000000   0.000000   0.000000
     5  C    0.025895  -0.000055  -0.000112  -0.000231  -0.000109  -0.000018
     6  H    0.015340  -0.000084  -0.000007  -0.000006  -0.000009   0.000000
     7  O    7.836708  -0.002197   0.003710   0.005006   0.004268  -0.000099
     8  C   -0.002197   5.023359   0.415331   0.407918   0.298666  -0.037958
     9  H    0.003710   0.415331   0.531893  -0.045418  -0.032641  -0.011731
    10  H    0.005006   0.407918  -0.045418   0.566904  -0.040433   0.009540
    11  C    0.004268   0.298666  -0.032641  -0.040433   4.863664   0.394992
    12  H   -0.000099  -0.037958  -0.011731   0.009540   0.394992   0.571900
    13  H   -0.000104  -0.059866   0.010089  -0.012988   0.423067  -0.045288
    14  C   -0.141517   0.007920  -0.001212   0.000596   0.002644  -0.000113
    15  C    0.654155  -0.043686  -0.003354  -0.003337  -0.002864   0.000359
    16  O    0.000000  -0.000000  -0.000000   0.000000  -0.000000   0.000000
    17  C   -0.000186  -0.000011   0.000000  -0.000002   0.000001  -0.000001
    18  C   -0.000016  -0.000001  -0.000000   0.000000   0.000000   0.000000
    19  O   -0.079170   0.171413  -0.031405  -0.031778  -0.042881   0.004319
    20  C    0.007168  -0.004850   0.000518   0.000584  -0.000999   0.000268
    21  H    0.000320  -0.000935   0.000101   0.000088  -0.000570  -0.000018
    22  C   -0.000160  -0.000328   0.000017   0.000036   0.000012   0.000033
    23  H    0.000004   0.000004  -0.000000  -0.000000  -0.000001   0.000000
    24  O   -0.000000   0.000000   0.000000  -0.000000  -0.000000  -0.000000
    25  O   -0.000000   0.000000  -0.000000  -0.000000   0.000000  -0.000000
    26  C    0.000000  -0.000000  -0.000000   0.000000  -0.000000   0.000000
    27  H    0.000000   0.000000  -0.000000   0.000000   0.000000   0.000000
    28  H    0.000000   0.000000   0.000000  -0.000000   0.000000  -0.000000
    29  C    0.000000   0.000000  -0.000000  -0.000000  -0.000000  -0.000000
    30  C   -0.000000  -0.000000   0.000000   0.000000   0.000000   0.000000
    31  H    0.000000   0.000000  -0.000000  -0.000000   0.000000  -0.000000
    32  H    0.000000   0.000000  -0.000000  -0.000000   0.000000   0.000000
    33  O    0.000000   0.000000   0.000000   0.000000  -0.000000   0.000000
              13         14         15         16         17         18
     1  O   -0.041141   0.000070   0.001644   0.000000   0.000000   0.000000
     2  H   -0.012607   0.000004   0.000083   0.000000  -0.000000   0.000000
     3  C    0.000002  -0.048471   0.001813   0.025296   0.459117  -0.064911
     4  H   -0.000000   0.003847  -0.000140   0.011572  -0.021066  -0.011977
     5  C   -0.000002   0.448152  -0.055202   0.000116  -0.048004   0.005378
     6  H    0.000000  -0.015930  -0.012883  -0.000031   0.004169  -0.000061
     7  O   -0.000104  -0.141517   0.654155   0.000000  -0.000186  -0.000016
     8  C   -0.059866   0.007920  -0.043686  -0.000000  -0.000011  -0.000001
     9  H    0.010089  -0.001212  -0.003354  -0.000000   0.000000  -0.000000
    10  H   -0.012988   0.000596  -0.003337   0.000000  -0.000002   0.000000
    11  C    0.423067   0.002644  -0.002864  -0.000000   0.000001   0.000000
    12  H   -0.045288  -0.000113   0.000359   0.000000  -0.000001   0.000000
    13  H    0.599224  -0.000549   0.002398   0.000000   0.000001   0.000000
    14  C   -0.000549   5.162762   0.334069   0.000127  -0.046363  -0.002170
    15  C    0.002398   0.334069   4.490654  -0.000006  -0.002272  -0.000471
    16  O    0.000000   0.000127  -0.000006   7.984535  -0.132318   0.365879
    17  C    0.000001  -0.046363  -0.002272  -0.132318   5.117124   0.360699
    18  C    0.000000  -0.002170  -0.000471   0.365879   0.360699   4.476062
    19  O    0.006597  -0.139225   0.378208   0.000000   0.000156  -0.000006
    20  C    0.000273   0.461864  -0.072592   0.000205  -0.048220   0.004487
    21  H    0.000314  -0.019557  -0.012908   0.000003   0.004146  -0.000059
    22  C    0.000018  -0.050760   0.006586   0.007544   0.453666  -0.062660
    23  H   -0.000001   0.004288  -0.000019   0.000720  -0.016824  -0.012791
    24  O    0.000000  -0.000106  -0.000014  -0.078099  -0.139072   0.648660
    25  O   -0.000000   0.000000   0.000000   0.000032   0.000002  -0.000001
    26  C    0.000000   0.000001   0.000000  -0.040606   0.002013   0.002611
    27  H   -0.000000   0.000000   0.000000   0.003812  -0.000230   0.000470
    28  H    0.000000   0.000000   0.000000   0.003799  -0.000225   0.000459
    29  C    0.000000   0.000000   0.000000  -0.000060   0.000002   0.000020
    30  C    0.000000   0.000001   0.000000   0.190680   0.013515  -0.042991
    31  H    0.000000   0.000000   0.000000  -0.033113  -0.000295  -0.004042
    32  H   -0.000000   0.000000   0.000000  -0.033054  -0.000346  -0.004009
    33  O    0.000000   0.000000  -0.000000   0.002820   0.000011   0.000044
              19         20         21         22         23         24
     1  O    0.004393   0.000020   0.000009   0.000000  -0.000000   0.000000
     2  H   -0.000005   0.000003  -0.000001   0.000000   0.000000   0.000000
     3  C    0.000134  -0.025165  -0.000173  -0.079415   0.007529   0.007162
     4  H    0.000003  -0.000215   0.000060   0.005057  -0.000162   0.000309
     5  C    0.007892  -0.087531   0.005084  -0.019336  -0.001406  -0.000242
     6  H    0.000747   0.007518  -0.000159  -0.001325   0.000047   0.000004
     7  O   -0.079170   0.007168   0.000320  -0.000160   0.000004  -0.000000
     8  C    0.171413  -0.004850  -0.000935  -0.000328   0.000004   0.000000
     9  H   -0.031405   0.000518   0.000101   0.000017  -0.000000   0.000000
    10  H   -0.031778   0.000584   0.000088   0.000036  -0.000000  -0.000000
    11  C   -0.042881  -0.000999  -0.000570   0.000012  -0.000001  -0.000000
    12  H    0.004319   0.000268  -0.000018   0.000033   0.000000  -0.000000
    13  H    0.006597   0.000273   0.000314   0.000018  -0.000001   0.000000
    14  C   -0.139225   0.461864  -0.019557  -0.050760   0.004288  -0.000106
    15  C    0.378208  -0.072592  -0.012908   0.006586  -0.000019  -0.000014
    16  O    0.000000   0.000205   0.000003   0.007544   0.000720  -0.078099
    17  C    0.000156  -0.048220   0.004146   0.453666  -0.016824  -0.139072
    18  C   -0.000006   0.004487  -0.000059  -0.062660  -0.012791   0.648660
    19  O    7.990312   0.026770   0.012646   0.000113  -0.000037   0.000000
    20  C    0.026770   5.038803   0.408906   0.471142  -0.030802   0.004313
    21  H    0.012646   0.408906   0.470967  -0.036719  -0.002545  -0.000047
    22  C    0.000113   0.471142  -0.036719   5.044445   0.399478   0.025427
    23  H   -0.000037  -0.030802  -0.002545   0.399478   0.455661   0.014805
    24  O    0.000000   0.004313  -0.000047   0.025427   0.014805   7.833296
    25  O   -0.000000  -0.000000  -0.000000   0.000000   0.000000   0.000000
    26  C   -0.000000  -0.000008   0.000000  -0.000234  -0.000013   0.005728
    27  H    0.000000   0.000000  -0.000000   0.000003   0.000000  -0.000071
    28  H    0.000000   0.000000  -0.000000   0.000003   0.000000  -0.000072
    29  C    0.000000  -0.000000   0.000000   0.000000  -0.000000   0.000005
    30  C    0.000000  -0.000022  -0.000000  -0.000431  -0.000050  -0.002520
    31  H   -0.000000  -0.000000  -0.000000  -0.000131  -0.000007   0.004986
    32  H   -0.000000  -0.000000  -0.000000  -0.000127  -0.000007   0.004975
    33  O   -0.000000  -0.000000  -0.000000  -0.000000  -0.000000   0.000057
              25         26         27         28         29         30
     1  O    0.000000   0.000000  -0.000000  -0.000000   0.000000   0.000000
     2  H    0.000000   0.000000  -0.000000  -0.000000  -0.000000   0.000000
     3  C   -0.000001  -0.000686   0.000100   0.000098  -0.000000  -0.002433
     4  H    0.000001  -0.000450   0.000100   0.000099   0.000001  -0.000374
     5  C   -0.000000   0.000012   0.000008   0.000008  -0.000000  -0.000183
     6  H   -0.000000  -0.000001  -0.000000  -0.000000  -0.000000   0.000004
     7  O   -0.000000   0.000000   0.000000   0.000000   0.000000  -0.000000
     8  C    0.000000  -0.000000   0.000000   0.000000   0.000000  -0.000000
     9  H   -0.000000  -0.000000  -0.000000   0.000000  -0.000000   0.000000
    10  H   -0.000000   0.000000   0.000000  -0.000000  -0.000000   0.000000
    11  C    0.000000  -0.000000   0.000000   0.000000  -0.000000   0.000000
    12  H   -0.000000   0.000000   0.000000  -0.000000  -0.000000   0.000000
    13  H   -0.000000   0.000000  -0.000000   0.000000   0.000000   0.000000
    14  C    0.000000   0.000001   0.000000   0.000000   0.000000   0.000001
    15  C    0.000000   0.000000   0.000000   0.000000   0.000000   0.000000
    16  O    0.000032  -0.040606   0.003812   0.003799  -0.000060   0.190680
    17  C    0.000002   0.002013  -0.000230  -0.000225   0.000002   0.013515
    18  C   -0.000001   0.002611   0.000470   0.000459   0.000020  -0.042991
    19  O   -0.000000  -0.000000   0.000000   0.000000   0.000000   0.000000
    20  C   -0.000000  -0.000008   0.000000   0.000000  -0.000000  -0.000022
    21  H   -0.000000   0.000000  -0.000000  -0.000000   0.000000  -0.000000
    22  C    0.000000  -0.000234   0.000003   0.000003   0.000000  -0.000431
    23  H    0.000000  -0.000013   0.000000   0.000000  -0.000000  -0.000050
    24  O    0.000000   0.005728  -0.000071  -0.000072   0.000005  -0.002520
    25  O    7.745286  -0.005843   0.004809   0.004796   0.524319   0.004708
    26  C   -0.005843   4.973946   0.419206   0.419273  -0.021025   0.260093
    27  H    0.004809   0.419206   0.525226  -0.042027  -0.004766  -0.032703
    28  H    0.004796   0.419273  -0.042027   0.524859  -0.004746  -0.032640
    29  C    0.524319  -0.021025  -0.004766  -0.004746   5.019586   0.007724
    30  C    0.004708   0.260093  -0.032703  -0.032640   0.007724   4.964723
    31  H   -0.000024  -0.034107  -0.009944   0.006943  -0.000059   0.419609
    32  H   -0.000024  -0.033993   0.006946  -0.009928  -0.000064   0.419559
    33  O   -0.062825   0.168897  -0.033070  -0.033049   0.260793  -0.043083
              31         32         33
     1  O   -0.000000  -0.000000   0.000000
     2  H   -0.000000   0.000000   0.000000
     3  C    0.000410   0.000417   0.000004
     4  H    0.000083   0.000084   0.000007
     5  C    0.000017   0.000017   0.000000
     6  H   -0.000000  -0.000000  -0.000000
     7  O    0.000000   0.000000   0.000000
     8  C    0.000000   0.000000   0.000000
     9  H   -0.000000  -0.000000   0.000000
    10  H   -0.000000  -0.000000   0.000000
    11  C    0.000000   0.000000  -0.000000
    12  H   -0.000000   0.000000   0.000000
    13  H    0.000000  -0.000000   0.000000
    14  C    0.000000   0.000000   0.000000
    15  C    0.000000   0.000000  -0.000000
    16  O   -0.033113  -0.033054   0.002820
    17  C   -0.000295  -0.000346   0.000011
    18  C   -0.004042  -0.004009   0.000044
    19  O   -0.000000  -0.000000  -0.000000
    20  C   -0.000000  -0.000000  -0.000000
    21  H   -0.000000  -0.000000  -0.000000
    22  C   -0.000131  -0.000127  -0.000000
    23  H   -0.000007  -0.000007  -0.000000
    24  O    0.004986   0.004975   0.000057
    25  O   -0.000024  -0.000024  -0.062825
    26  C   -0.034107  -0.033993   0.168897
    27  H   -0.009944   0.006946  -0.033070
    28  H    0.006943  -0.009928  -0.033049
    29  C   -0.000059  -0.000064   0.260793
    30  C    0.419609   0.419559  -0.043083
    31  H    0.524076  -0.039384   0.004181
    32  H   -0.039384   0.523837   0.004165
    33  O    0.004181   0.004165   7.948994
          Atomic-Atomic Spin Densities.
               1          2          3          4          5          6
     1  O   -0.000000  -0.000000   0.000000   0.000000  -0.000000  -0.000000
     2  H   -0.000000   0.000000  -0.000000  -0.000000  -0.000000   0.000000
     3  C    0.000000  -0.000000  -0.000113  -0.000207   0.000291   0.000018
     4  H    0.000000  -0.000000  -0.000207  -0.000239   0.000086   0.000016
     5  C   -0.000000  -0.000000   0.000291   0.000086  -0.000192  -0.000028
     6  H   -0.000000   0.000000   0.000018   0.000016  -0.000028  -0.000021
     7  O   -0.000000  -0.000000  -0.000000  -0.000000   0.000002   0.000001
     8  C    0.000000   0.000000  -0.000000  -0.000000   0.000001  -0.000000
     9  H   -0.000000  -0.000000   0.000000   0.000000  -0.000000  -0.000000
    10  H   -0.000000  -0.000000   0.000000   0.000000   0.000000  -0.000000
    11  C   -0.000000  -0.000000  -0.000000  -0.000000   0.000000  -0.000000
    12  H   -0.000000  -0.000000   0.000000   0.000000  -0.000000  -0.000000
    13  H   -0.000000   0.000000   0.000000   0.000000  -0.000000  -0.000000
    14  C    0.000000   0.000000  -0.000169  -0.000036   0.000068   0.000033
    15  C    0.000000   0.000000  -0.000046  -0.000000   0.000103  -0.000003
    16  O    0.000000   0.000000  -0.000084  -0.000123   0.000009   0.000001
    17  C   -0.000000   0.000000  -0.000473   0.000211  -0.000223  -0.000021
    18  C   -0.000000   0.000000   0.000894   0.000047  -0.000159  -0.000001
    19  O   -0.000000  -0.000000  -0.000001  -0.000000   0.000002   0.000000
    20  C    0.000000   0.000000   0.000155   0.000003  -0.000135   0.000000
    21  H    0.000000   0.000000  -0.000004  -0.000000   0.000002   0.000000
    22  C    0.000000  -0.000000  -0.000301   0.000001   0.000180   0.000001
    23  H    0.000000   0.000000   0.000016   0.000000  -0.000003  -0.000000
    24  O   -0.000000   0.000000   0.000012  -0.000002  -0.000001  -0.000000
    25  O    0.000000   0.000000  -0.000000  -0.000000  -0.000000   0.000000
    26  C   -0.000000   0.000000   0.000392  -0.000033   0.000011  -0.000000
    27  H    0.000000  -0.000000  -0.000018  -0.000001  -0.000001   0.000000
    28  H    0.000000  -0.000000  -0.000018  -0.000001  -0.000001   0.000000
    29  C    0.000000   0.000000   0.000002  -0.000001   0.000000  -0.000000
    30  C   -0.000000  -0.000000  -0.000309   0.000023  -0.000010   0.000000
    31  H    0.000000   0.000000   0.000009  -0.000001   0.000000   0.000000
    32  H    0.000000   0.000000   0.000009  -0.000001   0.000000   0.000000
    33  O    0.000000   0.000000  -0.000003   0.000000  -0.000000   0.000000
               7          8          9         10         11         12
     1  O   -0.000000   0.000000  -0.000000  -0.000000  -0.000000  -0.000000
     2  H   -0.000000   0.000000  -0.000000  -0.000000  -0.000000  -0.000000
     3  C   -0.000000  -0.000000   0.000000   0.000000  -0.000000   0.000000
     4  H   -0.000000  -0.000000   0.000000   0.000000  -0.000000   0.000000
     5  C    0.000002   0.000001  -0.000000   0.000000   0.000000  -0.000000
     6  H    0.000001  -0.000000  -0.000000  -0.000000  -0.000000  -0.000000
     7  O   -0.000005  -0.000000   0.000000   0.000000   0.000000  -0.000000
     8  C   -0.000000  -0.000000  -0.000000  -0.000000  -0.000001   0.000000
     9  H    0.000000  -0.000000  -0.000000   0.000000   0.000000   0.000000
    10  H    0.000000  -0.000000   0.000000  -0.000000   0.000000  -0.000000
    11  C    0.000000  -0.000001   0.000000   0.000000   0.000000   0.000000
    12  H   -0.000000   0.000000   0.000000  -0.000000   0.000000  -0.000000
    13  H   -0.000000   0.000000  -0.000000   0.000000   0.000000   0.000000
    14  C   -0.000004   0.000001  -0.000000  -0.000000  -0.000000  -0.000000
    15  C    0.000003  -0.000001  -0.000000  -0.000000  -0.000000   0.000000
    16  O    0.000000  -0.000000  -0.000000  -0.000000  -0.000000   0.000000
    17  C    0.000000  -0.000000  -0.000000  -0.000000  -0.000000   0.000000
    18  C    0.000000   0.000000  -0.000000  -0.000000   0.000000  -0.000000
    19  O    0.000000   0.000001   0.000000   0.000000   0.000001  -0.000000
    20  C   -0.000001  -0.000000  -0.000000  -0.000000  -0.000000   0.000000
    21  H   -0.000000  -0.000000  -0.000000  -0.000000  -0.000000   0.000000
    22  C    0.000000   0.000000   0.000000   0.000000   0.000000  -0.000000
    23  H   -0.000000  -0.000000   0.000000   0.000000  -0.000000   0.000000
    24  O    0.000000  -0.000000  -0.000000  -0.000000  -0.000000   0.000000
    25  O   -0.000000   0.000000   0.000000   0.000000   0.000000  -0.000000
    26  C    0.000000  -0.000000  -0.000000  -0.000000  -0.000000   0.000000
    27  H   -0.000000   0.000000   0.000000   0.000000   0.000000  -0.000000
    28  H   -0.000000   0.000000   0.000000   0.000000   0.000000  -0.000000
    29  C    0.000000  -0.000000   0.000000   0.000000  -0.000000   0.000000
    30  C   -0.000000   0.000000   0.000000   0.000000   0.000000  -0.000000
    31  H    0.000000  -0.000000  -0.000000  -0.000000  -0.000000   0.000000
    32  H    0.000000  -0.000000  -0.000000  -0.000000  -0.000000   0.000000
    33  O   -0.000000   0.000000   0.000000   0.000000   0.000000  -0.000000
              13         14         15         16         17         18
     1  O   -0.000000   0.000000   0.000000   0.000000  -0.000000  -0.000000
     2  H    0.000000   0.000000   0.000000   0.000000   0.000000   0.000000
     3  C    0.000000  -0.000169  -0.000046  -0.000084  -0.000473   0.000894
     4  H    0.000000  -0.000036  -0.000000  -0.000123   0.000211   0.000047
     5  C   -0.000000   0.000068   0.000103   0.000009  -0.000223  -0.000159
     6  H   -0.000000   0.000033  -0.000003   0.000001  -0.000021  -0.000001
     7  O   -0.000000  -0.000004   0.000003   0.000000   0.000000   0.000000
     8  C    0.000000   0.000001  -0.000001  -0.000000  -0.000000   0.000000
     9  H   -0.000000  -0.000000  -0.000000  -0.000000  -0.000000  -0.000000
    10  H    0.000000  -0.000000  -0.000000  -0.000000  -0.000000  -0.000000
    11  C    0.000000  -0.000000  -0.000000  -0.000000  -0.000000   0.000000
    12  H    0.000000  -0.000000   0.000000   0.000000   0.000000  -0.000000
    13  H   -0.000000  -0.000000   0.000000   0.000000   0.000000  -0.000000
    14  C   -0.000000   0.000044  -0.000091  -0.000005   0.000054   0.000047
    15  C    0.000000  -0.000091   0.000070  -0.000000  -0.000016   0.000001
    16  O    0.000000  -0.000005  -0.000000   0.005048   0.000337  -0.000414
    17  C    0.000000   0.000054  -0.000016   0.000337   0.003313  -0.002665
    18  C   -0.000000   0.000047   0.000001  -0.000414  -0.002665   0.002713
    19  O   -0.000000  -0.000003   0.000000   0.000000   0.000001   0.000000
    20  C    0.000000  -0.000071  -0.000106   0.000009   0.000233   0.000064
    21  H   -0.000000  -0.000017  -0.000007   0.000000   0.000019   0.000001
    22  C   -0.000000   0.000123   0.000092  -0.000057  -0.000320  -0.000041
    23  H    0.000000  -0.000004  -0.000002  -0.000000  -0.000035   0.000042
    24  O    0.000000  -0.000003  -0.000000   0.000059   0.000090  -0.000315
    25  O   -0.000000  -0.000000   0.000000   0.000024   0.000000  -0.000006
    26  C    0.000000  -0.000001  -0.000000  -0.008887  -0.001586   0.003611
    27  H   -0.000000   0.000000   0.000000   0.000398   0.000057  -0.000102
    28  H   -0.000000   0.000000   0.000000   0.000397   0.000057  -0.000102
    29  C    0.000000  -0.000000  -0.000000  -0.000008  -0.000007  -0.000008
    30  C   -0.000000   0.000003   0.000000   0.005407   0.001584  -0.003181
    31  H    0.000000  -0.000000  -0.000000  -0.000224  -0.000082   0.000237
    32  H    0.000000  -0.000000  -0.000000  -0.000223  -0.000082   0.000237
    33  O   -0.000000   0.000000   0.000000   0.000088   0.000015  -0.000039
              19         20         21         22         23         24
     1  O   -0.000000   0.000000   0.000000   0.000000   0.000000  -0.000000
     2  H   -0.000000   0.000000   0.000000  -0.000000   0.000000   0.000000
     3  C   -0.000001   0.000155  -0.000004  -0.000301   0.000016   0.000012
     4  H   -0.000000   0.000003  -0.000000   0.000001   0.000000  -0.000002
     5  C    0.000002  -0.000135   0.000002   0.000180  -0.000003  -0.000001
     6  H    0.000000   0.000000   0.000000   0.000001  -0.000000  -0.000000
     7  O    0.000000  -0.000001  -0.000000   0.000000  -0.000000   0.000000
     8  C    0.000001  -0.000000  -0.000000   0.000000  -0.000000  -0.000000
     9  H    0.000000  -0.000000  -0.000000   0.000000   0.000000  -0.000000
    10  H    0.000000  -0.000000  -0.000000   0.000000   0.000000  -0.000000
    11  C    0.000001  -0.000000  -0.000000   0.000000  -0.000000  -0.000000
    12  H   -0.000000   0.000000   0.000000  -0.000000   0.000000   0.000000
    13  H   -0.000000   0.000000  -0.000000  -0.000000   0.000000   0.000000
    14  C   -0.000003  -0.000071  -0.000017   0.000123  -0.000004  -0.000003
    15  C    0.000000  -0.000106  -0.000007   0.000092  -0.000002  -0.000000
    16  O    0.000000   0.000009   0.000000  -0.000057  -0.000000   0.000059
    17  C    0.000001   0.000233   0.000019  -0.000320  -0.000035   0.000090
    18  C    0.000000   0.000064   0.000001  -0.000041   0.000042  -0.000315
    19  O   -0.000002   0.000003   0.000000  -0.000003  -0.000000   0.000000
    20  C    0.000003   0.000529   0.000048  -0.000693  -0.000004   0.000010
    21  H    0.000000   0.000048   0.000014  -0.000048  -0.000000   0.000000
    22  C   -0.000003  -0.000693  -0.000048   0.001103  -0.000008  -0.000080
    23  H   -0.000000  -0.000004  -0.000000  -0.000008  -0.000006  -0.000001
[...]
 11399,0.00015553,0.00017676,0.00045280,-0.00120215,-0.00004814,-0.1185
 6397,-0.07360201,-0.09616562,-0.01146190,-0.01608679,-0.01961256,0.120
 39002,0.00000305,0.00000225,-0.00000213,-0.00000108,-0.00000091,0.0000
 0022,-0.00000615,-0.00004863,0.00002823,-0.00005649,0.00000340,0.00002
 202,0.00000148,0.00002289,0.00001646,-0.00000507,0.00000088,0.00000270
 ,0.00000438,0.00000320,-0.00000220,-0.00000476,-0.00000044,0.00000392,
 0.00000014,0.00000028,-0.00000011,0.00000089,-0.00000022,-0.00000032,-
 0.00000262,-0.00000225,0.00000096,0.00000015,-0.00000041,0.00000018,0.
 00000042,0.00000040,0.00000022,-0.00000969,0.00000402,0.00000263,-0.00
 000625,-0.00000379,0.00000650,0.00130246,0.00234543,-0.00041391,-0.000
 03235,0.00000737,-0.00001356,0.00023592,-0.00097972,0.00003663,0.00000
 712,0.00000663,-0.00000845,0.00000647,0.00000812,-0.00000607,-0.000001
 91,-0.00000032,0.00000040,-0.00001152,-0.00000211,0.00002004,-0.000001
 48,0.00000909,-0.00001276,-0.00021424,0.00036033,0.00067238,0.00046418
 ,-0.00033264,-0.00087919,-0.07032507,-0.13335315,-0.10123079,0.0064290
 1,0.00793671,0.00897681,0.07679011,0.14127650,0.00000461,0.00000303,-0
 .00000694,-0.00000160,-0.00000088,0.00000130,0.00000693,0.00002747,-0.
 00002075,0.00000455,-0.00000849,0.00002768,-0.00000205,-0.00000339,-0.
 00000708,0.00000347,0.00000009,-0.00000235,0.00001364,-0.00000942,-0.0
 0002156,-0.00000718,-0.00000056,0.00001206,0.00000086,0.00000005,-0.00
 000142,0.00000116,0.00000004,-0.00000131,-0.00000276,-0.00000373,0.000
 00492,0.00000019,0.00000008,0.00000038,-0.00000044,-0.00000009,-0.0000
 0035,0.00001970,0.00000191,-0.00002005,-0.00002931,-0.00000495,0.00004
 580,-0.00072947,-0.00065282,0.00125520,0.00000752,-0.00002207,-0.00003
 572,-0.00019474,0.00009130,0.00047615,0.00001351,0.00001313,-0.0000237
 6,-0.00000081,-0.00000629,-0.00000081,0.00000086,0.00000063,-0.0000011
 5,0.00000617,-0.00001169,-0.00000447,-0.00000388,-0.00000826,0.0000120
 5,0.00006706,0.00017894,-0.00045470,-0.00182212,0.00321884,0.00173632,
 -0.09015838,-0.09787022,-0.17146086,-0.00432393,-0.00391472,-0.0018415
 2,0.09154256,0.11034874,0.19485633,0.00000317,0.00000481,-0.00000654,-
 0.00000109,-0.00000206,0.00000162,-0.00001552,-0.00002597,0.00001622,0
 .00001647,-0.00000358,0.00001184,-0.00000185,0.00001196,-0.00001147,-0
 .00000054,-0.00000162,0.00000977,-0.00000439,0.00001580,-0.00000494,-0
 .00000359,-0.00000191,0.00001006,0.00000052,-0.00000044,-0.00000077,-0
 .00000008,-0.00000013,-0.00000063,-0.00000171,-0.00000451,0.00000538,-
 0.00000047,0.00000034,-0.00000027,0.00000002,-0.00000027,-0.00000024,-
 0.00000130,-0.00000789,0.00000429,0.00000031,-0.00002877,0.00001294,-0
 .00033490,-0.00193787,0.00100076,-0.00000909,-0.00014297,0.00001137,-0
 .00022029,0.00040544,0.00031451,0.00000644,0.00002034,-0.00001719,-0.0
 0000527,-0.00000663,0.00000935,-0.00000164,0.00000110,0.00000486,-0.00
 002212,0.00002978,0.00002481,0.00000506,0.00000031,-0.00000240,0.00010
 441,-0.00015180,-0.00012275,-0.12328024,0.23368191,0.11797232,0.000425
 04,-0.02447330,0.02387566,0.00007283,-0.00134421,0.00016337,-0.0002052
 9,-0.00046134,0.00079975,0.18784336,0.00017608,0.00009958,-0.00024962,
 -0.00005989,-0.00002656,0.00004781,0.00010556,0.00013046,-0.00018703,-
 0.00020604,0.00022278,0.00028151,-0.00003449,0.00010678,0.00003363,0.0
 0002073,0.00001460,-0.00003373,0.00048316,-0.00029300,-0.00068910,-0.0
 0027111,-0.00001556,0.00041193,0.00002455,0.00000302,-0.00004460,0.000
 04633,0.00000127,-0.00004100,-0.00011206,-0.00012448,0.00017735,0.0000
 0916,-0.00000197,0.00001503,-0.00001347,-0.00000080,-0.00001349,0.0003
 8546,0.00007809,-0.00060715,-0.00094987,-0.00013308,0.00148804,0.00395
 853,0.00695676,-0.00730835,0.00035580,0.00064397,-0.00066531,-0.001939
 28,-0.00664293,0.00415783,0.00048011,0.00043290,-0.00081052,0.00005536
 ,0.00001559,-0.00008724,0.00002224,0.00001784,-0.00003741,0.00020062,-
 0.00041163,-0.00023633,-0.00008168,-0.00009779,0.00014414,0.00041550,0
 .00270741,-0.00111317,0.23206338,-0.69730286,-0.23204036,-0.02402763,-
 0.01545536,0.04207484,0.00674003,0.00289295,-0.00734504,0.00348061,0.0
 0263064,-0.00935146,-0.18223132,0.95485807,-0.00003975,-0.00002690,0.0
 0005417,0.00001388,0.00000879,-0.00001024,-0.00000774,0.00001456,0.000
 00144,0.00004898,-0.00003129,-0.00004624,-0.00000297,-0.00003938,0.000
 00362,0.00000563,0.00000083,-0.00000320,-0.00009093,0.00002849,0.00012
 849,0.00005956,0.00000606,-0.00008858,-0.00000546,-0.00000029,0.000008
 62,-0.00000954,0.00000038,0.00000866,0.00002593,0.00003055,-0.00003877
 ,-0.00000149,0.00000066,-0.00000268,0.00000180,-0.00000060,0.00000219,
 -0.00006800,-0.00000212,0.00010564,0.00018238,0.00006977,-0.00028807,-
 0.00006947,0.00171336,-0.00009949,-0.00007912,0.00009768,0.00008690,0.
 00074010,0.00060428,-0.00121746,-0.00010199,-0.00011136,0.00017308,-0.
 00000211,0.00000727,0.00000167,0.00000095,-0.00000468,0.00000107,-0.00
 000695,0.00002947,0.00000289,0.00001272,0.00001815,-0.00001928,-0.0002
 2516,-0.00026367,0.00040125,0.11831150,-0.23453234,-0.15732443,0.02377
 454,0.04281717,-0.03137223,-0.00063417,0.00061314,0.00066854,-0.000601
 80,0.00121273,0.00123192,-0.19950712,0.11164391,0.32218449,0.00010477,
 0.00008222,-0.00015730,-0.00003712,-0.00002429,0.00002844,0.00005070,0
 .00001846,-0.00043513,-0.00035299,0.00028914,0.00013521,0.00005042,0.0
 0009983,0.00006404,0.00004780,0.00000494,-0.00001573,0.00031015,-0.000
 14385,-0.00046429,-0.00017099,-0.00001629,0.00029311,0.00001987,0.0000
 0012,-0.00003084,0.00002847,0.00000175,-0.00003396,-0.00005939,-0.0000
 9991,0.00010908,0.00000215,0.00000111,0.00000660,-0.00000682,-0.000000
 08,-0.00000606,0.00025132,0.00015326,-0.00040542,-0.00066124,-0.000169
 91,0.00100546,-0.11506603,0.00440737,0.06935226,0.00509530,0.00158214,
 0.00036039,-0.00696029,-0.02300081,0.01731908,0.00033429,0.00034966,-0
 .00058167,-0.00009957,-0.00002883,-0.00041405,-0.00000261,0.00001638,-
 0.00007630,0.00041659,-0.00033122,0.00003904,0.00002882,-0.00006862,0.
 00021289,-0.00609655,0.01032482,-0.00219397,0.00095635,0.00121939,-0.0
 0070490,-0.08192032,-0.00272419,-0.01255853,0.00487365,0.03113935,-0.0
 0900256,0.00016294,-0.01698996,0.00561842,-0.00234012,-0.00165182,0.00
 366692,0.59096058,0.00003168,0.00001634,-0.00004626,-0.00001068,-0.000
 00349,0.00000925,0.00046066,-0.00035507,-0.00068337,-0.00010318,0.0006
 4153,0.00000262,-0.00008928,0.00033215,0.00009626,0.00000046,0.0000026
 4,0.00000582,0.00009286,-0.00006692,-0.00013198,-0.00004755,0.00000294
 ,0.00007399,0.00000386,0.00000090,-0.00000790,0.00000826,0.00000099,-0
 .00000718,-0.00001901,-0.00002206,0.00003202,0.00000163,-0.00000009,0.
 00000253,-0.00000259,-0.00000039,-0.00000282,0.00016195,0.00010078,-0.
 00026682,-0.00020599,0.00001408,0.00030985,0.01812951,-0.09166139,-0.0
 2388359,0.00068489,-0.00539526,0.00086180,-0.02606942,-0.00236592,0.04
 086109,0.00009337,0.00008951,-0.00015936,0.00002831,-0.00055564,-0.000
 00842,-0.00007084,0.00002046,0.00009638,-0.00080180,0.00048201,0.00122
 136,0.00001332,-0.00003103,0.00001225,-0.00176322,-0.00097401,0.001775
 54,-0.00171010,0.00371359,0.00205671,-0.00254156,-0.23297142,0.0291929
 7,-0.00151177,-0.01303800,0.00242749,0.00038359,-0.01829426,0.00565659
 ,0.00293367,-0.00503653,-0.00360706,-0.00803658,0.58082721,-0.00017773
 ,-0.00013471,0.00024347,0.00006316,0.00004159,-0.00004113,-0.00051701,
 -0.00001490,0.00056816,0.00020527,-0.00059125,-0.00044468,0.00009718,-
 0.00019343,-0.00001258,-0.00001504,-0.00000131,0.00006145,-0.00051041,
 0.00023301,0.00073126,0.00030467,0.00002725,-0.00044610,-0.00003500,-0
 .00000426,0.00004951,-0.00004819,0.00000089,0.00005000,0.00010880,0.00
 016152,-0.00016353,-0.00000566,0.00000170,-0.00001259,0.00000782,-0.00
 000468,0.00000716,-0.00040761,-0.00025203,0.00067925,0.00101318,0.0002
 5457,-0.00163732,0.06688258,-0.00280175,-0.17211440,0.00052685,-0.0005
 2311,0.00479815,0.01787793,0.03618266,-0.03222103,-0.00054221,-0.00055
 670,0.00092105,-0.00042369,0.00007408,0.00026678,-0.00006129,-0.000038
 06,0.00005074,0.00011812,0.00050163,0.00013498,0.00019758,0.00014006,-
 0.00017295,-0.00006984,-0.01684757,-0.00330899,-0.00016270,-0.00243185
 ,0.00134712,-0.01258265,0.02943483,-0.07635789,0.00081056,0.00790533,-
 0.00090234,-0.00147134,-0.02332785,0.00918587,0.00284863,0.00346838,-0
 .00516525,0.06157675,0.02100557,0.53178470,-0.00001078,-0.00000783,0.0
 0001544,0.00000389,0.00000198,-0.00000241,-0.00003003,-0.00000916,0.00
 010228,0.00006981,-0.00006451,-0.00000382,-0.00001096,-0.00002336,-0.0
 0002464,-0.00000951,0.00000007,0.00000692,-0.00004382,0.00002850,0.000
 05888,0.00001878,0.00000059,-0.00003163,-0.00000249,-0.00000018,0.0000
 0347,-0.00000354,-0.00000023,0.00000444,0.00000600,0.00001064,-0.00000
 975,-0.00000054,-0.00000023,-0.00000100,0.00000085,-0.00000041,0.00000
 061,-0.00004923,-0.00002703,0.00008919,0.00009568,0.00000779,-0.000130
 48,0.00905660,0.01145072,0.02410559,-0.00081785,-0.00002882,-0.0002479
 0,0.00130478,0.00202799,-0.00038556,-0.00004091,-0.00003863,0.00006690
 ,0.00001176,0.00001831,0.00005010,0.00000121,-0.00000213,0.00001035,-0
 .00003802,0.00005444,-0.00002010,0.00000622,0.00000300,-0.00002221,-0.
 00022554,-0.00099218,0.00079562,-0.00005891,0.00014712,0.00002072,-0.0
 0007242,0.00054465,-0.00115442,0.00063050,-0.00004987,0.00072359,0.001
 08612,0.00006173,0.00064666,-0.00007861,-0.00015683,0.00020564,-0.1164
 8569,-0.07129673,-0.09439536,0.11769046,0.00000019,-0.00000158,0.00000
 076,-0.00000003,0.00000047,-0.00000027,0.00001450,-0.00002063,0.000047
 64,-0.00001861,-0.00000092,-0.00000205,0.00006478,0.00000725,-0.000053
 14,-0.00000605,-0.00000102,-0.00000460,-0.00000503,0.00000800,0.000008
 44,0.00000017,0.00000078,-0.00000413,-0.00000019,-0.00000024,0.0000005
 5,-0.00000004,-0.00000050,0.00000070,-0.00000051,0.00000210,-0.0000001
 3,0.00000038,-0.00000018,0.00000037,-0.00000034,0.00000013,-0.00000013
 ,-0.00002589,-0.00004784,0.00004010,0.00002511,-0.00000004,-0.00003151
 ,0.00361383,0.00198416,0.00126882,-0.00045213,-0.00014222,-0.00037151,
 -0.00029034,0.00222187,0.00157019,-0.00000533,-0.00000962,0.00000936,-
 0.00000684,0.00002519,0.00002440,0.00000043,0.00000068,0.00000355,0.00
 001065,0.00004220,-0.00000985,-0.00000606,-0.00001009,0.00002511,0.000
 49580,-0.00077056,-0.00007408,-0.00012793,0.00035773,0.00036914,-0.016
 74698,-0.01892088,-0.02297924,0.00049438,0.00146852,-0.00023893,0.0000
 7532,-0.00459605,0.00250830,0.00004483,-0.00080461,0.00018676,-0.06908
 498,-0.13070371,-0.10151060,0.07441443,0.14039110,0.00001830,0.0000155
 4,-0.00002423,-0.00000667,-0.00000481,0.00000379,0.00003431,-0.0000550
 6,-0.00006496,-0.00013118,0.00013997,0.00003711,-0.00001601,0.00005922
 ,0.00010033,0.00000182,-0.00000091,-0.00000232,0.00005721,-0.00002444,
 -0.00007694,-0.00003153,-0.00000269,0.00004928,0.00000377,0.00000060,-
 0.00000509,0.00000562,0.00000008,-0.00000639,-0.00001103,-0.00001886,0
 .00001509,0.00000046,-0.00000021,0.00000116,-0.00000029,0.00000094,-0.
 00000035,0.00004719,0.00010564,-0.00009261,-0.00012666,-0.00002068,0.0
 0017631,-0.00171254,-0.01045637,-0.03537861,0.00067083,0.00047890,-0.0
 0003531,-0.00032283,-0.00908453,0.00070331,0.00006417,0.00006505,-0.00
 010457,0.00003259,-0.00000247,-0.00014482,0.00000114,0.00000013,-0.000
 01808,0.00003054,-0.00016359,0.00008320,0.00000625,0.00002607,-0.00000
 059,-0.00125595,0.00278603,0.00177503,0.00002350,0.00021840,-0.0002468
 5,0.00551576,0.00575133,0.00904652,-0.00013122,-0.00072789,0.00050324,
 0.00073851,0.00268660,-0.00082800,-0.00008840,-0.00011840,0.00029044,-
 0.08772656,-0.09790937,-0.17393237,0.08952597,0.11068898,0.19913289,-0
 .00001050,-0.00000978,0.00001643,0.00000382,0.00000295,-0.00000301,-0.
 00001017,0.00005792,0.00001819,0.00000782,-0.00010942,-0.00008780,0.00
 006927,-0.00003819,-0.00003262,-0.00000148,0.00000043,-0.00000298,-0.0
 0002831,0.00000954,0.00004661,0.00001953,0.00000204,-0.00003130,-0.000
 00254,-0.00000010,0.00000379,-0.00000278,-0.00000023,0.00000342,0.0000
 0539,0.00001176,-0.00001114,0.00000007,-0.00000019,-0.00000034,0.00000
 050,0.00000004,0.00000049,-0.00001712,-0.00007675,0.00004139,0.0000601
 0,0.00001405,-0.00010708,-0.01985968,0.00261654,0.01107226,-0.00002568
 ,-0.00037779,0.00030922,-0.00041113,0.00701428,-0.00085305,-0.00003692
 ,-0.00004079,0.00006720,-0.00008261,-0.00001518,0.00007495,-0.00001007
 ,-0.00000034,0.00000615,0.00004591,0.00012627,-0.00002664,0.00000132,-
 0.00002245,0.00001128,0.00160075,-0.00194995,-0.00161849,-0.00009855,-
 0.00032073,0.00007916,0.00486148,-0.00156294,0.00065614,0.00063468,-0.
 00149988,0.00121577,0.00064606,0.00054574,-0.00014934,0.00024535,0.000
 30186,-0.00027569,-0.26687218,0.09119065,-0.05116195,-0.01208612,0.006
 30351,-0.00453368,0.29059546,-0.00000074,-0.00000227,0.00000022,0.0000
 0047,0.00000077,0.00000009,-0.00003754,-0.00001933,0.00000216,0.000011
 52,-0.00000161,0.00001273,0.00002607,-0.00000042,-0.00008461,0.0000068
 1,0.00000041,0.00000193,-0.00000555,0.00000548,0.00000550,0.00000341,0
 .00000117,-0.00000214,-0.00000053,-0.00000048,0.00000034,-0.00000049,-
 0.00000023,0.00000038,0.00000015,0.00000252,0.00000028,0.00000026,0.00
 000025,0.00000037,-0.00000057,-0.00000037,-0.00000038,-0.00001394,-0.0
 0005213,0.00004011,0.00001647,0.00000033,-0.00003178,-0.00209177,0.000
 73079,-0.00174086,0.00047132,-0.00008325,0.00023335,-0.00164998,0.0026
 4564,0.00074538,-0.00000479,-0.00000995,0.00000950,-0.00002676,0.00002
 049,0.00002072,-0.00000353,0.00000054,0.00000124,0.00000047,0.00004771
 ,-0.00002337,-0.00002044,-0.00001450,0.00001997,0.00023890,-0.00092522
 ,-0.00066467,-0.00035372,0.00027702,0.00023655,0.03086174,-0.01375895,
 0.00782837,-0.00135745,-0.00493086,0.00166218,-0.00003469,0.00147735,-
 0.00068101,-0.00000803,-0.00076478,0.00006664,0.09281990,-0.09127926,0
 .02000525,-0.01605413,0.00728212,-0.00378789,-0.10245071,0.09725070,0.
 00001697,0.00001355,-0.00002462,-0.00000619,-0.00000370,0.00000402,0.0
 0009940,-0.00000419,-0.00008685,0.00000901,0.00012950,0.00010105,-0.00
 006826,0.00003748,0.00002695,0.00000230,-0.00000122,-0.00001174,0.0000
 5937,-0.00003743,-0.00008962,-0.00003346,-0.00000213,0.00004771,0.0000
 0466,0.00000068,-0.00000626,0.00000499,0.00000007,-0.00000568,-0.00000
 921,-0.00001757,0.00001585,0.00000053,0.00000031,0.00000116,-0.0000011
 0,0.00000049,-0.00000081,0.00007359,0.00007362,-0.00011927,-0.00011811
 ,-0.00001308,0.00021104,0.03916219,-0.00928721,-0.00510182,-0.00068615
 ,0.00004155,-0.00088787,0.00100229,-0.00557564,0.00196731,0.00006057,0
 .00006281,-0.00010792,0.00009948,-0.00000843,-0.00004537,0.00001562,0.
 00000382,-0.00000687,-0.00004565,-0.00013295,-0.00000847,-0.00001612,0
 .00000738,0.00000863,-0.00021480,0.00215416,0.00013722,0.00012854,-0.0
 0007398,-0.00012591,-0.00871191,0.00241015,-0.00117843,0.00109684,0.00
 173308,-0.00002385,0.00071208,-0.00024942,0.00047852,0.00003490,0.0001
 7704,-0.00008091,-0.05852207,0.02231437,-0.06332650,-0.02004631,0.0089
 5342,-0.00215601,0.04608736,-0.02225398,0.06969138,-0.00006247,-0.0000
 4598,0.00009233,0.00002176,0.00001425,-0.00001763,0.00002640,0.0000316
 8,0.00001627,0.00003302,-0.00005836,-0.00016406,0.00001510,-0.00006314
 ,0.00001744,-0.00000453,-0.00000009,-0.00000655,-0.00015438,0.00005906
 ,0.00024185,0.00009875,0.00001013,-0.00015893,-0.00001041,-0.00000012,
 0.00001676,-0.00001517,-0.00000008,0.00001611,0.00003793,0.00005410,-0
 .00006575,-0.00000152,-0.00000020,-0.00000389,0.00000372,0.00000016,0.
 00000403,-0.00013154,-0.00001348,0.00019804,0.00032153,0.00011530,-0.0
 0053348,0.00045477,-0.00487210,0.00241847,-0.00013941,-0.00036962,0.00
 015497,0.00056918,0.00380702,-0.00101348,-0.00017742,-0.00019751,0.000
 31349,-0.00000357,-0.00004793,0.00002991,-0.00001197,-0.00000599,0.000
 01592,-0.00009623,0.00014820,0.00011582,0.00001414,0.00002315,-0.00004
 480,0.00019257,-0.00149805,-0.00003651,0.02321712,0.00407724,-0.011675
 15,-0.09886058,0.01957844,0.04701327,-0.01914906,-0.00217666,0.0383260
 8,0.00757142,0.00227671,-0.00133161,-0.06219487,-0.03758958,0.05467893
 ,-0.00656224,0.00006163,0.00994862,0.00008233,0.00121898,-0.00068340,0
 .00075835,-0.00034216,-0.00019134,0.15415728,-0.00012261,-0.00007243,0
 .00017408,0.00004191,0.00001965,-0.00003274,-0.00008771,-0.00019893,0.
 00017743,0.00011143,-0.00018389,-0.00015264,0.00002941,-0.00001885,-0.
 00003923,-0.00002504,-0.00001079,0.00003906,-0.00034908,0.00021852,0.0
 0049772,0.00019217,0.00001256,-0.00029309,-0.00001845,-0.00000237,0.00
 003227,-0.00003281,-0.00000108,0.00003025,0.00007723,0.00009029,-0.000
 12284,-0.00000608,0.00000119,-0.00001041,0.00000926,0.00000029,0.00000
 894,-0.00028655,-0.00008407,0.00045519,0.00069042,0.00009379,-0.001082
 32,-0.00494039,-0.01464667,0.01045250,-0.00023487,-0.00117876,0.000555
 45,0.00013090,0.00747667,-0.00144845,-0.00034320,-0.00031042,0.0005800
 8,-0.00005313,-0.00006124,0.00009437,-0.00002972,-0.00000959,0.0000472
 3,-0.00025676,0.00042688,0.00031863,0.00006404,0.00007192,-0.00011396,
 0.00024631,-0.00244876,0.00004868,0.01216011,-0.12373576,0.00701275,0.
 01083607,-0.08000725,-0.01394680,0.00238264,0.00044978,-0.00798047,0.0
 1020544,0.00151939,-0.00949908,-0.02631565,-0.24470075,0.07944904,-0.0
 2013849,0.00650931,0.02979572,-0.00001968,0.00223842,-0.00064533,0.000
 27787,0.00210031,-0.00045252,0.01580499,0.44644262,0.00012322,0.000086
 22,-0.00017027,-0.00004322,-0.00002699,0.00003108,0.00003768,-0.000005
 42,-0.00001705,-0.00019473,0.00010926,0.00019985,0.00000121,0.00010406
 ,-0.00000044,-0.00000200,0.00000052,-0.00000590,0.00031696,-0.00012893
 ,-0.00045243,-0.00019441,-0.00001827,0.00029327,0.00001962,0.00000152,
 -0.00003024,0.00003146,-0.00000058,-0.00003057,-0.00007806,-0.00010114
 ,0.00011910,0.00000445,-0.00000145,0.00000860,-0.00000606,0.00000192,-
 0.00000652,0.00024783,0.00003522,-0.00039208,-0.00063793,-0.00019643,0
 .00100645,0.00245129,0.01038581,-0.00415737,0.00013279,0.00076727,-0.0
 0042037,-0.00037653,-0.00714643,0.00217505,0.00034301,0.00036121,-0.00
 058317,0.00003129,0.00008648,-0.00005265,0.00002013,0.00001056,-0.0000
 3545,0.00018883,-0.00030618,-0.00023979,-0.00005215,-0.00005102,0.0000
 7762,-0.00033995,0.00275019,0.00003996,-0.01316878,0.01938454,0.032731
 82,0.04865934,-0.02736229,-0.13582986,0.01026541,-0.00040699,-0.006739
 26,0.02451050,0.00210837,-0.03459169,0.05263033,0.09685785,-0.12959824
 ,0.01354167,-0.00130033,-0.02062001,0.00004324,-0.00042643,0.00120040,
 -0.00081470,-0.00162260,0.00070393,-0.13769170,-0.09394950,0.29538624\
 \-0.00000028,-0.00000041,0.,-0.00000002,0.00000005,-0.00000012,-0.0000
 0048,0.,-0.00000031,-0.00000079,0.00000008,-0.00000068,-0.00000096,-0.
 00000007,-0.00000048,-0.00000156,0.,-0.00000093,-0.00000179,0.00000051
 ,-0.00000082,-0.00000058,0.00000011,0.00000007,-0.00000097,0.00000045,
 -0.00000025,-0.00000048,-0.00000057,-0.00000078,0.00000032,-0.00000023
 ,-0.00000030,0.00000041,0.00000052,0.00000057,0.00000064,-0.00000043,0
 .00000028,-0.00000020,0.00000013,0.00000007,-0.00000048,-0.00000049,-0
 .00000091,0.00000014,0.00000044,0.00000015,0.00000041,-0.00000010,0.00
 000010,0.00000056,0.00000028,0.00000087,0.00000018,-0.00000023,0.00000
 008,0.00000037,0.00000003,0.00000032,0.00000098,0.00000004,0.00000074,
 0.00000105,0.00000005,0.00000063,0.00000162,0.00000010,0.00000099,0.00
 000167,-0.00000036,0.00000087,-0.00000112,0.00000061,-0.00000023,-0.00
 000016,0.00000002,0.00000035,-0.00000035,-0.00000067,-0.00000074,-0.00
 000070,0.00000044,-0.00000004,-0.00000048,-0.00000083,-0.00000116,0.00
 000090,-0.00000002,0.00000005,0.00000104,-0.00000054,0.00000048,0.0000
 0084,0.00000081,0.00000086,0.00000029,0.00000029,0.00000029\\\@


 Just remember, when you're over the hill, you begin to pick up speed.
 -- Charles Schulz
 Job cpu time:       0 days 18 hours 21 minutes 23.5 seconds.
 Elapsed time:       0 days  0 hours 30 minutes 36.8 seconds.
 File lengths (MBytes):  RWF=   2436 Int=      0 D2E=      0 Chk=     69 Scr=      1
 Normal termination of Gaussian 16 at Tue Jun 25 12:13:30 2019.
