 Entering Gaussian System, Link 0=g16
 Initial command:
 /nopt/nrel/apps/gaussian/g16B/g16/l1.exe "/dev/shm/Gau-131500.inp" -scrdir="/dev/shm/"
 Default is to use a total of  36 processors:
                               36 via shared-memory
                                1 via Linda
 Entering Link 1 = /nopt/nrel/apps/gaussian/g16B/g16/l1.exe PID=    131501.
  
 Copyright (c) 1988-2017, Gaussian, Inc.  All Rights Reserved.
  
 This is part of the Gaussian(R) 16 program.  It is based on
 the Gaussian(R) 09 system (copyright 2009, Gaussian, Inc.),
 the Gaussian(R) 03 system (copyright 2003, Gaussian, Inc.),
 the Gaussian(R) 98 system (copyright 1998, Gaussian, Inc.),
 the Gaussian(R) 94 system (copyright 1995, Gaussian, Inc.),
 the Gaussian 92(TM) system (copyright 1992, Gaussian, Inc.),
 the Gaussian 90(TM) system (copyright 1990, Gaussian, Inc.),
 the Gaussian 88(TM) system (copyright 1988, Gaussian, Inc.),
 the Gaussian 86(TM) system (copyright 1986, Carnegie Mellon
 University), and the Gaussian 82(TM) system (copyright 1983,
 Carnegie Mellon University). Gaussian is a federally registered
 trademark of Gaussian, Inc.
  
 This software contains proprietary and confidential information,
 including trade secrets, belonging to Gaussian, Inc.
  
 This software is provided under written license and may be
 used, copied, transmitted, or stored only in accord with that
 written license.
  
 The following legend is applicable only to US Government
 contracts under FAR:
  
                    RESTRICTED RIGHTS LEGEND
  
 Use, reproduction and disclosure by the US Government is
 subject to restrictions as set forth in subparagraphs (a)
 and (c) of the Commercial Computer Software - Restricted
 Rights clause in FAR 52.227-19.
  
 Gaussian, Inc.
 340 Quinnipiac St., Bldg. 40, Wallingford CT 06492
  
  
 ---------------------------------------------------------------
 Warning -- This program may not be used in any manner that
 competes with the business of Gaussian, Inc. or will provide
 assistance to any competitor of Gaussian, Inc.  The licensee
 of this program is prohibited from giving any competitor of
 Gaussian, Inc. access to this program.  By using this program,
 the user acknowledges that Gaussian, Inc. is engaged in the
 business of creating and licensing software in the field of
 computational chemistry and represents and warrants to the
 licensee that it is not a competitor of Gaussian, Inc. and that
 it will not use this program in any manner prohibited above.
 ---------------------------------------------------------------
  

 Cite this work as:
 Gaussian 16, Revision B.01,
 M. J. Frisch, G. W. Trucks, H. B. Schlegel, G. E. Scuseria, 
 M. A. Robb, J. R. Cheeseman, G. Scalmani, V. Barone, 
 G. A. Petersson, H. Nakatsuji, X. Li, M. Caricato, A. V. Marenich, 
 J. Bloino, B. G. Janesko, R. Gomperts, B. Mennucci, H. P. Hratchian, 
 J. V. Ortiz, A. F. Izmaylov, J. L. Sonnenberg, D. Williams-Young, 
 F. Ding, F. Lipparini, F. Egidi, J. Goings, B. Peng, A. Petrone, 
 T. Henderson, D. Ranasinghe, V. G. Zakrzewski, J. Gao, N. Rega, 
 G. Zheng, W. Liang, M. Hada, M. Ehara, K. Toyota, R. Fukuda, 
 J. Hasegawa, M. Ishida, T. Nakajima, Y. Honda, O. Kitao, H. Nakai, 
 T. Vreven, K. Throssell, J. A. Montgomery, Jr., J. E. Peralta, 
 F. Ogliaro, M. J. Bearpark, J. J. Heyd, E. N. Brothers, K. N. Kudin, 
 V. N. Staroverov, T. A. Keith, R. Kobayashi, J. Normand, 
 K. Raghavachari, A. P. Rendell, J. C. Burant, S. S. Iyengar, 
 J. Tomasi, M. Cossi, J. M. Millam, M. Klene, C. Adamo, R. Cammi, 
 J. W. Ochterski, R. L. Martin, K. Morokuma, O. Farkas, 
 J. B. Foresman, and D. J. Fox, Gaussian, Inc., Wallingford CT, 2016.
 
 ******************************************
 Gaussian 16:  ES64L-G16RevB.01 20-Dec-2017
                28-Jun-2019 
 ******************************************
 %RWF=/dev/shm/,5GB,/tmp/scratch/920635/,-1
 %NoSave
 %OldChk=pet_mono_f2hs_4.chk
 %Chk=/dev/shm/pet_mono_f2hs_4_tzvp.chk
 Copying data from "pet_mono_f2hs_4.chk" to current chk file "/dev/shm/pet_mono_f2hs_4_tzvp.chk"
 IOpt=  2 FromEx=T IUOpen= 4 IOptOp= 5 NList=   0 IFRang= 0 IUIn= 4 IUOut= 2.
 Default route: CacheSize=180224 MaxDisk=256GB
 ----------------------------------------------------------------------
 # geom=allcheck guess=read m062x/Def2TZVP nosymm scf=xqc opt=ReadFC fr
 eq=NoRaman
 ----------------------------------------------------------------------
 1/4=180224,10=3,18=20,19=15,26=3,29=7,38=1/1,3;
 2/4=180224,9=110,12=2,15=1,40=1/2;
 3/4=180224,5=44,7=101,11=2,14=-4,25=1,30=1,71=1,74=-55,116=-2/1,2,3;
 4/4=180224,5=1/1;
 5/4=180224,5=2,8=3,13=1,38=6/2,8;
 6/4=180224,7=2,8=2,9=2,10=2,28=1/1;
 7/4=180224,30=1/1,2,3,16;
 1/4=180224,18=20,19=15,26=3/3(2);
 2/4=180224,9=110,15=1/2;
 99/4=180224/99;
 2/4=180224,9=110,15=1/2;
 3/4=180224,5=44,7=101,11=2,14=-2,25=1,30=1,71=1,74=-55/1,2,3;
 4/4=180224,5=5,16=3,69=1/1;
 5/4=180224,5=2,8=3,13=1,38=5/2,8;
 7/4=180224,30=1/1,2,3,16;
 1/4=180224,18=20,19=15,26=3/3(-5);
 2/4=180224,9=110,15=1/2;
 6/4=180224,7=2,8=2,9=2,10=2,19=2,28=1/1;
 99/4=180224,9=1/99;
 Structure from the checkpoint file:  "/dev/shm/pet_mono_f2hs_4_tzvp.chk"
 --------------------------
 narrow results from confab
 --------------------------
 Charge =  0 Multiplicity = 2
 Redundant internal coordinates found in file.  (old form).
 C,0,-0.3793291513,2.5105759723,4.9833852384
 H,0,-0.649914984,1.6093165889,5.5362078732
 C,0,0.4045382988,2.4491701704,3.8288370191
 H,0,0.7693949765,1.4945695218,3.4460055831
 C,0,0.6873586987,3.6475097142,3.2083592054
 O,0,-2.0553022185,4.9739313492,7.0589030775
 C,0,-0.8361341335,3.7464324008,5.4563839125
 C,0,-1.6683337731,3.7416453214,6.6956922925
 C,0,0.265262434,4.8904613575,3.6283641493
 H,0,0.524285878,5.80460137,3.0914496625
 C,0,-0.5180238108,4.9334503675,4.7857987443
 H,0,-0.886093699,5.8830122769,5.1747788538
 O,0,-1.9626488281,2.7507124958,7.3090596532
 C,0,-4.3037000159,4.7522713554,7.9714668651
 H,0,-4.3899058054,3.6926406858,7.6956523265
 H,0,-4.655297858,5.3549241048,7.1140759466
 C,0,-2.8392475047,5.0758214021,8.2421969755
 H,0,-2.4474898285,4.4026846105,9.0166425773
 H,0,-2.7331562541,6.1176749952,8.5759703701
 O,0,-5.0773965421,4.9476788795,9.1240783981
 H,0,-5.144865879,5.8929150599,9.294691276
 Recover connectivity data from disk.

 GradGradGradGradGradGradGradGradGradGradGradGradGradGradGradGradGradGrad
 Berny optimization.
 Initialization pass.
 Force constant matrix read from checkpoint file:
 "/dev/shm/pet_mono_f2hs_4_tzvp.chk"
                           ----------------------------
                           !    Initial Parameters    !
                           ! (Angstroms and Degrees)  !
 --------------------------                            --------------------------
 ! Name  Definition              Value          Derivative Info.                !
 --------------------------------------------------------------------------------
 ! R1    R(1,2)                  1.0914         D2E/DX2 =    0.3592             !
 ! R2    R(1,3)                  1.3969         D2E/DX2 =    0.4657             !
 ! R3    R(1,7)                  1.3999         D2E/DX2 =    0.4642             !
 ! R4    R(3,4)                  1.0913         D2E/DX2 =    0.3581             !
 ! R5    R(3,5)                  1.3788         D2E/DX2 =    0.5141             !
 ! R6    R(5,9)                  1.3782         D2E/DX2 =    0.5025             !
 ! R7    R(6,8)                  1.3417         D2E/DX2 =    0.5875             !
 ! R8    R(6,17)                 1.4231         D2E/DX2 =    0.4558             !
 ! R9    R(7,8)                  1.4928         D2E/DX2 =    0.3574             !
 ! R10   R(7,11)                 1.4            D2E/DX2 =    0.4728             !
 ! R11   R(8,13)                 1.202          D2E/DX2 =    1.0526             !
 ! R12   R(9,10)                 1.0913         D2E/DX2 =    0.3571             !
 ! R13   R(9,11)                 1.3982         D2E/DX2 =    0.4724             !
 ! R14   R(11,12)                1.0902         D2E/DX2 =    0.3584             !
 ! R15   R(14,15)                1.0983         D2E/DX2 =    0.3493             !
 ! R16   R(14,16)                1.1054         D2E/DX2 =    0.3419             !
 ! R17   R(14,17)                1.524          D2E/DX2 =    0.3135             !
 ! R18   R(14,20)                1.4019         D2E/DX2 =    0.4518             !
 ! R19   R(17,18)                1.0983         D2E/DX2 =    0.3485             !
 ! R20   R(17,19)                1.0991         D2E/DX2 =    0.3458             !
 ! R21   R(20,21)                0.9629         D2E/DX2 =    0.5532             !
 ! A1    A(2,1,3)              121.4329         D2E/DX2 =    0.1611             !
 ! A2    A(2,1,7)              118.4882         D2E/DX2 =    0.1592             !
 ! A3    A(3,1,7)              120.0789         D2E/DX2 =    0.2502             !
 ! A4    A(1,3,4)              121.0656         D2E/DX2 =    0.1607             !
 ! A5    A(1,3,5)              116.6707         D2E/DX2 =    0.2509             !
 ! A6    A(4,3,5)              122.2637         D2E/DX2 =    0.16               !
 ! A7    A(3,5,9)              125.7232         D2E/DX2 =    0.2508             !
 ! A8    A(8,6,17)             116.7267         D2E/DX2 =    0.3287             !
 ! A9    A(1,7,8)              117.3601         D2E/DX2 =    0.2504             !
 ! A10   A(1,7,11)             120.8332         D2E/DX2 =    0.2531             !
 ! A11   A(8,7,11)             121.8067         D2E/DX2 =    0.2517             !
 ! A12   A(6,8,7)              112.4933         D2E/DX2 =    0.2813             !
 ! A13   A(6,8,13)             123.2581         D2E/DX2 =    0.3205             !
 ! A14   A(7,8,13)             124.2484         D2E/DX2 =    0.2649             !
 ! A15   A(5,9,10)             122.195          D2E/DX2 =    0.1603             !
 ! A16   A(5,9,11)             116.8437         D2E/DX2 =    0.2509             !
 ! A17   A(10,9,11)            120.9613         D2E/DX2 =    0.1621             !
 ! A18   A(7,11,9)             119.8504         D2E/DX2 =    0.2495             !
 ! A19   A(7,11,12)            119.4003         D2E/DX2 =    0.1603             !
 ! A20   A(9,11,12)            120.7493         D2E/DX2 =    0.1601             !
 ! A21   A(15,14,16)           107.8324         D2E/DX2 =    0.1549             !
 ! A22   A(15,14,17)           108.9567         D2E/DX2 =    0.1541             !
 ! A23   A(15,14,20)           107.3152         D2E/DX2 =    0.1597             !
 ! A24   A(16,14,17)           109.1282         D2E/DX2 =    0.1578             !
 ! A25   A(16,14,20)           112.7168         D2E/DX2 =    0.1608             !
 ! A26   A(17,14,20)           110.7738         D2E/DX2 =    0.2445             !
 ! A27   A(6,17,14)            111.4964         D2E/DX2 =    0.2249             !
 ! A28   A(6,17,18)            110.2385         D2E/DX2 =    0.1603             !
 ! A29   A(6,17,19)            105.4974         D2E/DX2 =    0.1541             !
 ! A30   A(14,17,18)           109.7482         D2E/DX2 =    0.1546             !
 ! A31   A(14,17,19)           110.3608         D2E/DX2 =    0.1529             !
 ! A32   A(18,17,19)           109.4132         D2E/DX2 =    0.1555             !
 ! A33   A(14,20,21)           108.7349         D2E/DX2 =    0.1605             !
 ! D1    D(2,1,3,4)              0.0107         D2E/DX2 =    0.0218             !
 ! D2    D(2,1,3,5)           -179.9945         D2E/DX2 =    0.0218             !
 ! D3    D(7,1,3,4)            179.9874         D2E/DX2 =    0.0219             !
 ! D4    D(7,1,3,5)             -0.0179         D2E/DX2 =    0.0219             !
 ! D5    D(2,1,7,8)              0.0235         D2E/DX2 =    0.0218             !
 ! D6    D(2,1,7,11)           179.9838         D2E/DX2 =    0.0218             !
 ! D7    D(3,1,7,8)           -179.9539         D2E/DX2 =    0.0218             !
 ! D8    D(3,1,7,11)             0.0065         D2E/DX2 =    0.0218             !
 ! D9    D(1,3,5,9)              0.0127         D2E/DX2 =    0.0248             !
 ! D10   D(4,3,5,9)           -179.9926         D2E/DX2 =    0.0248             !
 ! D11   D(3,5,9,10)           179.9743         D2E/DX2 =    0.0245             !
 ! D12   D(3,5,9,11)             0.0045         D2E/DX2 =    0.0245             !
 ! D13   D(17,6,8,7)          -179.1439         D2E/DX2 =    0.029              !
 ! D14   D(17,6,8,13)            0.7187         D2E/DX2 =    0.0298             !
 ! D15   D(8,6,17,14)          -80.9488         D2E/DX2 =    0.0152             !
 ! D16   D(8,6,17,18)           41.2087         D2E/DX2 =    0.0159             !
 ! D17   D(8,6,17,19)          159.2328         D2E/DX2 =    0.015              !
 ! D18   D(1,7,8,6)           -179.8344         D2E/DX2 =    0.019              !
 ! D19   D(1,7,8,13)             0.3047         D2E/DX2 =    0.0205             !
 ! D20   D(11,7,8,6)             0.2057         D2E/DX2 =    0.0198             !
 ! D21   D(11,7,8,13)         -179.6553         D2E/DX2 =    0.0197             !
 ! D22   D(1,7,11,9)             0.0114         D2E/DX2 =    0.0219             !
 ! D23   D(1,7,11,12)         -179.9947         D2E/DX2 =    0.0219             !
 ! D24   D(8,7,11,9)           179.97           D2E/DX2 =    0.0219             !
 ! D25   D(8,7,11,12)           -0.0361         D2E/DX2 =    0.0219             !
 ! D26   D(5,9,11,7)            -0.0165         D2E/DX2 =    0.0222             !
 ! D27   D(5,9,11,12)          179.9896         D2E/DX2 =    0.0222             !
 ! D28   D(10,9,11,7)         -179.9867         D2E/DX2 =    0.0222             !
 ! D29   D(10,9,11,12)           0.0194         D2E/DX2 =    0.0222             !
 ! D30   D(15,14,17,6)          66.3012         D2E/DX2 =    0.0065             !
 ! D31   D(15,14,17,18)        -56.1385         D2E/DX2 =    0.0083             !
 ! D32   D(15,14,17,19)       -176.7966         D2E/DX2 =    0.0064             !
 ! D33   D(16,14,17,6)         -51.2052         D2E/DX2 =    0.0074             !
 ! D34   D(16,14,17,18)       -173.6449         D2E/DX2 =    0.0065             !
 ! D35   D(16,14,17,19)         65.697          D2E/DX2 =    0.0078             !
 ! D36   D(20,14,17,6)        -175.8672         D2E/DX2 =    0.0067             !
 ! D37   D(20,14,17,18)         61.6931         D2E/DX2 =    0.0069             !
 ! D38   D(20,14,17,19)        -58.965          D2E/DX2 =    0.0069             !
 ! D39   D(15,14,20,21)       -170.0481         D2E/DX2 =    0.0121             !
 ! D40   D(16,14,20,21)        -51.4759         D2E/DX2 =    0.0133             !
 ! D41   D(17,14,20,21)         71.123          D2E/DX2 =    0.0122             !
 --------------------------------------------------------------------------------
 Trust Radius=3.00D-01 FncErr=1.00D-07 GrdErr=1.00D-06 EigMax=2.50D+02 EigMin=1.00D-04
 Number of steps in this run=    105 maximum allowed number of steps=    126.
 GradGradGradGradGradGradGradGradGradGradGradGradGradGradGradGradGradGrad

                          Input orientation:                          
 ---------------------------------------------------------------------
 Center     Atomic      Atomic             Coordinates (Angstroms)
 Number     Number       Type             X           Y           Z
 ---------------------------------------------------------------------
      1          6           0       -0.379329    2.510576    4.983385
      2          1           0       -0.649915    1.609317    5.536208
      3          6           0        0.404538    2.449170    3.828837
      4          1           0        0.769395    1.494570    3.446006
      5          6           0        0.687359    3.647510    3.208359
      6          8           0       -2.055302    4.973931    7.058903
      7          6           0       -0.836134    3.746432    5.456384
      8          6           0       -1.668334    3.741645    6.695692
      9          6           0        0.265262    4.890461    3.628364
     10          1           0        0.524286    5.804601    3.091450
     11          6           0       -0.518024    4.933450    4.785799
     12          1           0       -0.886094    5.883012    5.174779
     13          8           0       -1.962649    2.750712    7.309060
     14          6           0       -4.303700    4.752271    7.971467
     15          1           0       -4.389906    3.692641    7.695652
     16          1           0       -4.655298    5.354924    7.114076
     17          6           0       -2.839248    5.075821    8.242197
     18          1           0       -2.447490    4.402685    9.016643
     19          1           0       -2.733156    6.117675    8.575970
     20          8           0       -5.077397    4.947679    9.124078
     21          1           0       -5.144866    5.892915    9.294691
 ---------------------------------------------------------------------
                    Distance matrix (angstroms):
                    1          2          3          4          5
     1  C    0.000000
     2  H    1.091374   0.000000
     3  C    1.396854   2.175394   0.000000
     4  H    2.171491   2.529141   1.091303   0.000000
     5  C    2.362448   3.370669   1.378767   2.167569   0.000000
     6  O    3.631085   3.951499   4.781063   5.756553   4.910017
     7  C    1.399907   2.146698   2.423028   3.419098   2.717431
     8  C    2.471651   2.632187   3.766451   4.642449   4.209470
     9  C    2.813438   3.904271   2.453465   3.437948   1.378223
    10  H    3.904682   4.995599   3.437586   4.331531   2.166404
    11  C    2.434871   3.410333   2.817542   3.908759   2.365355
    12  H    3.415665   4.295449   3.907501   4.998773   3.367496
    13  O    2.823708   2.483759   4.219769   4.895421   4.964124
    14  C    5.417981   5.399889   6.680806   7.538482   6.987014
    15  H    4.983813   4.794890   6.283723   7.036292   6.776168
    16  H    5.560042   5.706342   6.696129   7.601603   6.834754
    17  C    4.821985   4.912455   6.074470   6.989357   6.310036
    18  H    4.911673   4.811196   6.234068   7.059566   6.643321
    19  H    5.608773   5.822830   6.770401   7.743223   6.827363
    20  O    6.719870   6.604549   8.020831   8.851522   8.361733
    21  H    7.262088   7.258099   8.516503   9.409094   8.723539
                    6          7          8          9         10
     6  O    0.000000
     7  C    2.358218   0.000000
     8  C    1.341714   1.492804   0.000000
     9  C    4.142534   2.421473   3.803561   0.000000
    10  H    4.804683   3.417560   4.696162   1.091340   0.000000
    11  C    2.744425   1.399961   2.528103   1.398228   2.171666
    12  H    2.396539   2.155637   2.740535   2.168450   2.517058
    13  O    2.239166   2.385980   1.201994   4.805167   5.770556
    14  C    2.436637   4.400155   3.097438   6.305320   6.944884
    15  H    2.738162   4.200775   2.899875   6.296682   7.057502
    16  H    2.628341   4.463317   3.420478   6.047960   6.573570
    17  C    1.423073   3.679741   2.354303   5.564153   6.194730
    18  H    2.076747   3.962648   2.535915   6.052313   6.775303
    19  H    2.017208   4.353539   3.211668   5.913998   6.386620
    20  O    3.660422   5.734395   4.355833   7.664865   8.276821
    21  H    3.922841   6.156717   4.844485   7.898206   8.404004
                   11         12         13         14         15
    11  C    0.000000
    12  H    1.090160   0.000000
    13  O    3.635675   3.940232   0.000000
    14  C    4.951025   4.558516   3.150483   0.000000
    15  H    4.999833   4.840375   2.632159   1.098327   0.000000
    16  H    4.766083   4.271610   3.751039   1.105410   1.780969
    17  C    4.165938   3.724973   2.654299   1.524008   2.148590
    18  H    4.680234   4.403322   2.424855   2.158731   2.454008
    19  H    4.546933   3.877475   3.679019   2.167109   3.066035
    20  O    6.293548   5.834281   4.221683   1.401893   2.021921
    21  H    6.531336   5.925447   4.893125   1.938956   2.822782
                   16         17         18         19         20
    16  H    0.000000
    17  C    2.156060   0.000000
    18  H    3.066095   1.098341   0.000000
    19  H    2.532499   1.099145   1.793597   0.000000
    20  O    2.093830   2.409034   2.687931   2.676710   0.000000
    21  H    2.298738   2.662942   3.094178   2.526543   0.962877
                   21
    21  H    0.000000
 Symmetry turned off by external request.
 Stoichiometry    C9H9O3(2)
 Framework group  C1[X(C9H9O3)]
 Deg. of freedom    57
 Full point group                 C1      NOp   1
 Rotational constants (GHZ):           2.9011773           0.4276479           0.3885673
 Standard basis: def2TZVP (5D, 7F)
   426 basis functions,   684 primitive gaussians,   486 cartesian basis functions
    44 alpha electrons       43 beta electrons
       nuclear repulsion energy       651.0704872889 Hartrees.
 NAtoms=   21 NActive=   21 NUniq=   21 SFac= 1.00D+00 NAtFMM=   60 NAOKFM=F Big=F
 Integral buffers will be    131072 words long.
 Raffenetti 2 integral format.
 Two-electron integral symmetry is turned off.
 One-electron integrals computed using PRISM.
   1 Symmetry operations used in ECPInt.
 ECPInt:  NShTT=   14196 NPrTT=   43656 LenC2=   13013 LenP2D=   30166.
 LDataN:  DoStor=T MaxTD1= 6 Len=  172
 NBasis=   426 RedAO= T EigKep=  1.49D-05  NBF=   426
 NBsUse=   426 1.00D-06 EigRej= -1.00D+00 NBFU=   426
 Initial guess from the checkpoint file:  "/dev/shm/pet_mono_f2hs_4_tzvp.chk"
 B after Tr=     0.000000    0.000000    0.000000
         Rot=    1.000000    0.000000    0.000000    0.000000 Ang=   0.00 deg.
 Initial guess <Sx>= 0.0000 <Sy>= 0.0000 <Sz>= 0.5000 <S**2>= 0.7631 S= 0.5066
 Requested convergence on RMS density matrix=1.00D-08 within  32 cycles.
 Requested convergence on MAX density matrix=1.00D-06.
 Requested convergence on             energy=1.00D-06.
 No special actions if energy rises.
 SCF Done:  E(UM062X) =  -573.957548881     A.U. after   14 cycles
            NFock= 14  Conv=0.93D-08     -V/T= 2.0049
 <Sx>= 0.0000 <Sy>= 0.0000 <Sz>= 0.5000 <S**2>= 0.7632 S= 0.5066
 <L.S>= 0.000000000000E+00
 Annihilation of the first spin contaminant:
 S**2 before annihilation     0.7632,   after     0.7501
 QCSCF skips out because SCF is already converged.

 **********************************************************************

            Population analysis using the SCF Density.

 **********************************************************************

 Alpha  occ. eigenvalues --  -19.68075 -19.63606 -19.62079 -10.68119 -10.60030
 Alpha  occ. eigenvalues --  -10.59078 -10.58529 -10.56973 -10.56826 -10.56696
 Alpha  occ. eigenvalues --  -10.56528 -10.56461  -1.24848  -1.16188  -1.15158
 Alpha  occ. eigenvalues --   -0.98655  -0.89020  -0.86657  -0.84941  -0.76046
 Alpha  occ. eigenvalues --   -0.71441  -0.70353  -0.65537  -0.63418  -0.60763
 Alpha  occ. eigenvalues --   -0.57829  -0.56204  -0.55004  -0.53843  -0.53235
 Alpha  occ. eigenvalues --   -0.51298  -0.51025  -0.49426  -0.47099  -0.46059
 Alpha  occ. eigenvalues --   -0.44859  -0.42818  -0.41252  -0.39235  -0.36701
 Alpha  occ. eigenvalues --   -0.35541  -0.33205  -0.32798  -0.31842
 Alpha virt. eigenvalues --   -0.02613   0.00266   0.05058   0.07934   0.08754
 Alpha virt. eigenvalues --    0.09681   0.10573   0.10925   0.11906   0.13889
 Alpha virt. eigenvalues --    0.14384   0.15133   0.16482   0.17072   0.17994
 Alpha virt. eigenvalues --    0.19010   0.20691   0.21377   0.22375   0.23314
 Alpha virt. eigenvalues --    0.23495   0.24276   0.24743   0.27035   0.27157
 Alpha virt. eigenvalues --    0.28363   0.28598   0.29678   0.29925   0.30724
 Alpha virt. eigenvalues --    0.31119   0.32284   0.34317   0.34891   0.35314
 Alpha virt. eigenvalues --    0.36216   0.36757   0.38335   0.38772   0.38887
 Alpha virt. eigenvalues --    0.39917   0.40942   0.41442   0.41924   0.42659
 Alpha virt. eigenvalues --    0.43206   0.43585   0.44256   0.45425   0.46408
 Alpha virt. eigenvalues --    0.47133   0.48841   0.49327   0.50050   0.51607
 Alpha virt. eigenvalues --    0.52399   0.53181   0.53316   0.54241   0.54751
 Alpha virt. eigenvalues --    0.55673   0.57519   0.58119   0.58924   0.60619
 Alpha virt. eigenvalues --    0.61618   0.63719   0.65722   0.67058   0.68389
 Alpha virt. eigenvalues --    0.68892   0.69154   0.70754   0.71971   0.72695
 Alpha virt. eigenvalues --    0.74286   0.74427   0.76030   0.77563   0.77752
 Alpha virt. eigenvalues --    0.79569   0.80724   0.82427   0.83265   0.83871
 Alpha virt. eigenvalues --    0.84905   0.85748   0.87059   0.89082   0.90392
 Alpha virt. eigenvalues --    0.91310   0.91647   0.94090   0.94761   0.97175
 Alpha virt. eigenvalues --    0.97524   1.00014   1.01540   1.03174   1.04581
 Alpha virt. eigenvalues --    1.06008   1.07661   1.09904   1.10151   1.11968
 Alpha virt. eigenvalues --    1.14221   1.15519   1.15923   1.18042   1.21621
 Alpha virt. eigenvalues --    1.22864   1.24398   1.24589   1.27574   1.28943
 Alpha virt. eigenvalues --    1.29750   1.31480   1.31777   1.33771   1.34414
 Alpha virt. eigenvalues --    1.36565   1.39635   1.42051   1.43042   1.43713
 Alpha virt. eigenvalues --    1.44008   1.49005   1.49326   1.51368   1.52157
 Alpha virt. eigenvalues --    1.53110   1.55537   1.55670   1.56457   1.58405
 Alpha virt. eigenvalues --    1.59399   1.59468   1.61018   1.61720   1.63461
 Alpha virt. eigenvalues --    1.64914   1.66380   1.67178   1.69567   1.70190
 Alpha virt. eigenvalues --    1.73532   1.74315   1.76162   1.77342   1.78156
 Alpha virt. eigenvalues --    1.81481   1.83090   1.83721   1.86199   1.86358
 Alpha virt. eigenvalues --    1.86596   1.89300   1.91377   1.92016   1.94106
 Alpha virt. eigenvalues --    1.95087   1.97058   2.00936   2.01251   2.03527
 Alpha virt. eigenvalues --    2.04362   2.04995   2.07570   2.08335   2.09691
 Alpha virt. eigenvalues --    2.11818   2.14746   2.14819   2.17496   2.19137
 Alpha virt. eigenvalues --    2.20238   2.23503   2.24891   2.26451   2.28998
 Alpha virt. eigenvalues --    2.29647   2.30788   2.32332   2.32508   2.33821
 Alpha virt. eigenvalues --    2.35227   2.37505   2.38691   2.42049   2.43980
 Alpha virt. eigenvalues --    2.46064   2.47072   2.49397   2.52345   2.53231
 Alpha virt. eigenvalues --    2.54403   2.55946   2.58743   2.59205   2.59540
 Alpha virt. eigenvalues --    2.60550   2.62474   2.62853   2.64235   2.64516
 Alpha virt. eigenvalues --    2.65429   2.66240   2.68098   2.68679   2.70468
 Alpha virt. eigenvalues --    2.70928   2.71965   2.72764   2.73554   2.74841
 Alpha virt. eigenvalues --    2.77303   2.78638   2.79303   2.80690   2.81637
 Alpha virt. eigenvalues --    2.82488   2.84147   2.85332   2.88165   2.91405
 Alpha virt. eigenvalues --    2.91986   2.93637   2.95097   2.96294   2.97778
 Alpha virt. eigenvalues --    2.99373   3.00215   3.01306   3.01727   3.06128
 Alpha virt. eigenvalues --    3.07073   3.09258   3.10491   3.10926   3.11275
 Alpha virt. eigenvalues --    3.12097   3.12322   3.13153   3.13975   3.14750
 Alpha virt. eigenvalues --    3.17190   3.20322   3.20819   3.22448   3.22946
 Alpha virt. eigenvalues --    3.24057   3.26906   3.27956   3.29250   3.30865
 Alpha virt. eigenvalues --    3.31882   3.32309   3.33143   3.34628   3.35411
 Alpha virt. eigenvalues --    3.35907   3.36754   3.37279   3.37886   3.40049
 Alpha virt. eigenvalues --    3.41084   3.41326   3.42334   3.43905   3.44810
 Alpha virt. eigenvalues --    3.46142   3.46742   3.47321   3.48838   3.51937
 Alpha virt. eigenvalues --    3.53472   3.54631   3.55537   3.58780   3.61701
 Alpha virt. eigenvalues --    3.64309   3.65247   3.69389   3.72699   3.76674
 Alpha virt. eigenvalues --    3.79074   3.81896   3.82157   3.84664   3.86782
 Alpha virt. eigenvalues --    3.89932   3.90374   3.94147   3.96040   3.97351
 Alpha virt. eigenvalues --    4.01085   4.02855   4.07542   4.09300   4.11225
 Alpha virt. eigenvalues --    4.11746   4.14966   4.15684   4.17341   4.19291
 Alpha virt. eigenvalues --    4.20650   4.21795   4.24083   4.28974   4.31176
 Alpha virt. eigenvalues --    4.32490   4.40199   4.42468   4.45927   4.47071
 Alpha virt. eigenvalues --    4.53482   4.55905   4.56952   4.58106   4.59152
 Alpha virt. eigenvalues --    4.66625   4.69412   4.71741   4.76017   4.78404
 Alpha virt. eigenvalues --    4.82534   4.87596   4.96731   5.08430   5.11913
 Alpha virt. eigenvalues --    5.18306   5.19386   5.23545   5.25995   5.27230
 Alpha virt. eigenvalues --    5.31690   5.32175   5.35677   5.42406   5.46952
 Alpha virt. eigenvalues --    5.51150   5.52994   5.65876   5.68531   5.76232
 Alpha virt. eigenvalues --    5.80458   5.85620   5.93079   5.98859   6.12781
 Alpha virt. eigenvalues --    6.18612   6.24382   6.25781   6.36740   6.41570
 Alpha virt. eigenvalues --    6.44683   6.55718   6.64495   6.65627   6.72923
 Alpha virt. eigenvalues --    6.76133   6.79416   6.91465   6.92566   6.94759
 Alpha virt. eigenvalues --    7.05662   7.11239   7.13975   7.31251   7.42180
 Alpha virt. eigenvalues --   22.14964  22.54884  22.56164  22.60073  22.62402
 Alpha virt. eigenvalues --   22.79180  22.83546  23.19221  23.55931  43.91165
 Alpha virt. eigenvalues --   44.08507  44.38724
  Beta  occ. eigenvalues --  -19.68077 -19.63606 -19.62092 -10.68114 -10.60030
  Beta  occ. eigenvalues --  -10.59079 -10.57527 -10.56910 -10.56835 -10.56622
  Beta  occ. eigenvalues --  -10.56535 -10.56465  -1.24859  -1.16191  -1.15184
  Beta  occ. eigenvalues --   -0.97895  -0.88453  -0.86224  -0.84255  -0.75721
  Beta  occ. eigenvalues --   -0.70736  -0.69418  -0.65303  -0.63216  -0.60730
  Beta  occ. eigenvalues --   -0.57704  -0.56003  -0.54602  -0.53103  -0.52517
  Beta  occ. eigenvalues --   -0.50786  -0.49931  -0.49410  -0.46647  -0.45631
  Beta  occ. eigenvalues --   -0.44532  -0.42379  -0.41249  -0.39249  -0.36617
  Beta  occ. eigenvalues --   -0.35546  -0.32875  -0.31902
  Beta virt. eigenvalues --   -0.05967  -0.01653   0.00253   0.05063   0.07322
  Beta virt. eigenvalues --    0.09015   0.09311   0.10380   0.10904   0.11864
  Beta virt. eigenvalues --    0.13490   0.14392   0.14983   0.16382   0.16975
  Beta virt. eigenvalues --    0.18032   0.18745   0.19246   0.21542   0.21727
  Beta virt. eigenvalues --    0.23166   0.23434   0.23759   0.24679   0.26138
  Beta virt. eigenvalues --    0.26618   0.27174   0.27913   0.28683   0.29347
  Beta virt. eigenvalues --    0.30003   0.30806   0.32257   0.34295   0.34716
  Beta virt. eigenvalues --    0.35498   0.36126   0.36716   0.38051   0.38788
  Beta virt. eigenvalues --    0.38938   0.39937   0.40853   0.41074   0.41592
  Beta virt. eigenvalues --    0.42489   0.42859   0.43170   0.43772   0.45148
  Beta virt. eigenvalues --    0.46221   0.47145   0.48801   0.49204   0.49882
  Beta virt. eigenvalues --    0.51394   0.51852   0.52804   0.53290   0.54198
  Beta virt. eigenvalues --    0.54677   0.55483   0.57606   0.58061   0.58883
  Beta virt. eigenvalues --    0.60614   0.61630   0.63784   0.65643   0.67309
  Beta virt. eigenvalues --    0.68456   0.68833   0.69262   0.70808   0.72082
  Beta virt. eigenvalues --    0.72700   0.74113   0.74713   0.76072   0.77544
  Beta virt. eigenvalues --    0.77914   0.79687   0.81029   0.82500   0.83350
  Beta virt. eigenvalues --    0.84100   0.84808   0.86029   0.87184   0.89137
  Beta virt. eigenvalues --    0.90575   0.91401   0.91685   0.94164   0.94776
  Beta virt. eigenvalues --    0.97028   0.97574   1.00029   1.01716   1.03141
  Beta virt. eigenvalues --    1.04600   1.06297   1.07675   1.09951   1.10222
  Beta virt. eigenvalues --    1.11838   1.13487   1.15472   1.15865   1.18081
  Beta virt. eigenvalues --    1.21687   1.22884   1.24444   1.24609   1.27671
  Beta virt. eigenvalues --    1.28954   1.29688   1.31377   1.31715   1.33572
  Beta virt. eigenvalues --    1.33954   1.36822   1.39528   1.42106   1.42977
  Beta virt. eigenvalues --    1.44008   1.45346   1.48795   1.49143   1.51540
  Beta virt. eigenvalues --    1.52114   1.52847   1.55427   1.55463   1.55986
  Beta virt. eigenvalues --    1.58496   1.59413   1.59717   1.61174   1.61761
  Beta virt. eigenvalues --    1.63486   1.64923   1.66745   1.67445   1.69640
  Beta virt. eigenvalues --    1.70224   1.73290   1.74314   1.76393   1.77571
  Beta virt. eigenvalues --    1.78095   1.81343   1.83074   1.83709   1.86258
  Beta virt. eigenvalues --    1.86396   1.86758   1.89275   1.91371   1.91981
  Beta virt. eigenvalues --    1.94057   1.94922   1.97045   2.00855   2.01211
  Beta virt. eigenvalues --    2.03600   2.04387   2.04859   2.07190   2.07736
  Beta virt. eigenvalues --    2.09629   2.11865   2.14739   2.15037   2.17559
  Beta virt. eigenvalues --    2.19393   2.20313   2.23698   2.25000   2.26493
  Beta virt. eigenvalues --    2.28998   2.29618   2.30790   2.32238   2.32483
  Beta virt. eigenvalues --    2.33868   2.35137   2.37539   2.38583   2.42095
  Beta virt. eigenvalues --    2.43905   2.46163   2.47053   2.49360   2.52343
  Beta virt. eigenvalues --    2.53102   2.54467   2.55937   2.58665   2.59634
  Beta virt. eigenvalues --    2.59956   2.60621   2.62543   2.63262   2.64390
  Beta virt. eigenvalues --    2.64893   2.65745   2.66327   2.68486   2.68951
  Beta virt. eigenvalues --    2.71017   2.71325   2.72110   2.72799   2.73537
  Beta virt. eigenvalues --    2.75001   2.77766   2.79256   2.79521   2.80974
  Beta virt. eigenvalues --    2.81813   2.82608   2.84242   2.85594   2.88248
  Beta virt. eigenvalues --    2.91450   2.92045   2.93549   2.95041   2.96226
  Beta virt. eigenvalues --    2.98664   3.00197   3.00562   3.01434   3.02287
  Beta virt. eigenvalues --    3.06073   3.07521   3.09254   3.10541   3.10843
  Beta virt. eigenvalues --    3.11398   3.12302   3.12456   3.13606   3.14226
  Beta virt. eigenvalues --    3.15065   3.17212   3.20438   3.21241   3.22850
  Beta virt. eigenvalues --    3.23106   3.24646   3.27314   3.28034   3.29774
  Beta virt. eigenvalues --    3.30869   3.32721   3.33025   3.33540   3.34944
  Beta virt. eigenvalues --    3.35719   3.35963   3.36905   3.37435   3.39420
  Beta virt. eigenvalues --    3.40582   3.41190   3.41531   3.42845   3.44299
  Beta virt. eigenvalues --    3.45141   3.46303   3.46958   3.47481   3.49781
  Beta virt. eigenvalues --    3.52216   3.53684   3.54673   3.56222   3.58884
  Beta virt. eigenvalues --    3.61664   3.64496   3.65941   3.69374   3.72610
  Beta virt. eigenvalues --    3.76725   3.79143   3.82010   3.82307   3.84675
  Beta virt. eigenvalues --    3.86778   3.89955   3.90537   3.94172   3.96374
  Beta virt. eigenvalues --    3.97763   4.01469   4.03339   4.07589   4.09406
  Beta virt. eigenvalues --    4.11127   4.11705   4.15108   4.16116   4.17357
  Beta virt. eigenvalues --    4.19083   4.21017   4.21935   4.24294   4.29147
  Beta virt. eigenvalues --    4.32382   4.33212   4.40270   4.42593   4.45886
  Beta virt. eigenvalues --    4.47077   4.54404   4.56462   4.56809   4.58302
  Beta virt. eigenvalues --    4.59304   4.66990   4.69986   4.72097   4.76587
  Beta virt. eigenvalues --    4.79418   4.82745   4.88316   4.96821   5.08730
  Beta virt. eigenvalues --    5.12421   5.18278   5.19374   5.24172   5.26016
  Beta virt. eigenvalues --    5.27258   5.31897   5.32255   5.35680   5.42404
  Beta virt. eigenvalues --    5.46951   5.51125   5.52981   5.65858   5.68481
  Beta virt. eigenvalues --    5.76220   5.80453   5.85607   5.93067   5.98836
  Beta virt. eigenvalues --    6.12771   6.18573   6.24356   6.25781   6.36643
  Beta virt. eigenvalues --    6.41551   6.44682   6.55631   6.64483   6.65620
  Beta virt. eigenvalues --    6.72906   6.76115   6.79373   6.91438   6.92548
  Beta virt. eigenvalues --    6.94758   7.05646   7.11235   7.13957   7.31237
  Beta virt. eigenvalues --    7.42166  22.15296  22.55061  22.56816  22.60074
  Beta virt. eigenvalues --   22.62398  22.79239  22.83644  23.19264  23.55923
  Beta virt. eigenvalues --   43.91165  44.08509  44.38724
          Condensed to atoms (all electrons):
               1          2          3          4          5          6
     1  C    5.064223   0.385981   0.445645  -0.046869  -0.017676   0.007090
     2  H    0.385981   0.457200  -0.024682  -0.001481   0.001204   0.000666
     3  C    0.445645  -0.024682   4.945556   0.422062   0.526431  -0.000269
     4  H   -0.046869  -0.001481   0.422062   0.501274  -0.039156   0.000003
     5  C   -0.017676   0.001204   0.526431  -0.039156   5.060619   0.000342
     6  O    0.007090   0.000666  -0.000269   0.000003   0.000342   8.009190
     7  C    0.420651  -0.014941  -0.037293   0.006284  -0.063386  -0.148325
     8  C   -0.048711  -0.009146  -0.004015  -0.000351   0.002057   0.365818
     9  C   -0.043823   0.000071  -0.051428   0.006362   0.530715  -0.000337
    10  H   -0.002322   0.000064   0.006627  -0.000024  -0.038900  -0.000076
    11  C   -0.046791   0.005679  -0.047090  -0.001868  -0.018000   0.028479
    12  H    0.004618  -0.000168  -0.000053   0.000068   0.001559   0.014327
    13  O    0.027789   0.014223   0.001991  -0.000064   0.000130  -0.083701
    14  C    0.000116   0.000016   0.000033   0.000000  -0.000008  -0.027801
    15  H    0.000064   0.000038   0.000002   0.000000   0.000000  -0.001533
    16  H   -0.000092  -0.000003  -0.000002  -0.000000   0.000003   0.010042
    17  C   -0.000928  -0.000130  -0.000230  -0.000001   0.000071   0.164926
    18  H   -0.000341  -0.000016  -0.000011  -0.000000   0.000006  -0.027594
    19  H    0.000061   0.000003   0.000003   0.000000  -0.000004  -0.031426
    20  O   -0.000000   0.000000   0.000000   0.000000   0.000000   0.004647
    21  H    0.000000   0.000000   0.000000   0.000000  -0.000000   0.000137
               7          8          9         10         11         12
     1  C    0.420651  -0.048711  -0.043823  -0.002322  -0.046791   0.004618
     2  H   -0.014941  -0.009146   0.000071   0.000064   0.005679  -0.000168
     3  C   -0.037293  -0.004015  -0.051428   0.006627  -0.047090  -0.000053
     4  H    0.006284  -0.000351   0.006362  -0.000024  -0.001868   0.000068
     5  C   -0.063386   0.002057   0.530715  -0.038900  -0.018000   0.001559
     6  O   -0.148325   0.365818  -0.000337  -0.000076   0.028479   0.014327
     7  C    5.352244   0.246353  -0.044690   0.006812   0.425443  -0.016308
     8  C    0.246353   4.549257  -0.001139  -0.000159  -0.046818  -0.009272
     9  C   -0.044690  -0.001139   4.940187   0.421408   0.453985  -0.027034
    10  H    0.006812  -0.000159   0.421408   0.504167  -0.047397  -0.002146
    11  C    0.425443  -0.046818   0.453985  -0.047397   5.061054   0.388754
    12  H   -0.016308  -0.009272  -0.027034  -0.002146   0.388754   0.474422
    13  O   -0.145075   0.647553  -0.000210   0.000004   0.006201   0.000303
    14  C    0.000927   0.006574   0.000009   0.000001   0.000077  -0.000128
    15  H    0.004930   0.003863   0.000002   0.000000  -0.000291   0.000012
    16  H   -0.001610   0.001956   0.000015  -0.000001   0.000618   0.000168
    17  C   -0.006646  -0.071176  -0.000198  -0.000004  -0.002273  -0.000296
    18  H   -0.001615  -0.009905   0.000007  -0.000001   0.000957   0.000197
    19  H    0.005047   0.005950  -0.000017   0.000002  -0.001004  -0.000243
    20  O    0.000161   0.001997  -0.000000   0.000000  -0.000001   0.000004
    21  H    0.000058   0.000270   0.000000   0.000000  -0.000000   0.000003
              13         14         15         16         17         18
     1  C    0.027789   0.000116   0.000064  -0.000092  -0.000928  -0.000341
     2  H    0.014223   0.000016   0.000038  -0.000003  -0.000130  -0.000016
     3  C    0.001991   0.000033   0.000002  -0.000002  -0.000230  -0.000011
     4  H   -0.000064   0.000000   0.000000  -0.000000  -0.000001  -0.000000
     5  C    0.000130  -0.000008   0.000000   0.000003   0.000071   0.000006
     6  O   -0.083701  -0.027801  -0.001533   0.010042   0.164926  -0.027594
     7  C   -0.145075   0.000927   0.004930  -0.001610  -0.006646  -0.001615
     8  C    0.647553   0.006574   0.003863   0.001956  -0.071176  -0.009905
     9  C   -0.000210   0.000009   0.000002   0.000015  -0.000198   0.000007
    10  H    0.000004   0.000001   0.000000  -0.000001  -0.000004  -0.000001
    11  C    0.006201   0.000077  -0.000291   0.000618  -0.002273   0.000957
    12  H    0.000303  -0.000128   0.000012   0.000168  -0.000296   0.000197
    13  O    7.862526  -0.014471   0.003726   0.000417   0.014699   0.007126
    14  C   -0.014471   4.938476   0.414020   0.414539   0.263707  -0.062581
    15  H    0.003726   0.414020   0.523325  -0.043106  -0.046127  -0.008109
    16  H    0.000417   0.414539  -0.043106   0.616222  -0.068826   0.011067
    17  C    0.014699   0.263707  -0.046127  -0.068826   5.127186   0.427733
    18  H    0.007126  -0.062581  -0.008109   0.011067   0.427733   0.516019
    19  H    0.000977  -0.028490   0.006653  -0.011635   0.383609  -0.030220
    20  O    0.000052   0.234495  -0.030463  -0.040286  -0.041363   0.011368
    21  H   -0.000058  -0.032134   0.009780  -0.013601  -0.009185  -0.001116
              19         20         21
     1  C    0.000061  -0.000000   0.000000
     2  H    0.000003   0.000000   0.000000
     3  C    0.000003   0.000000   0.000000
     4  H    0.000000   0.000000   0.000000
     5  C   -0.000004   0.000000  -0.000000
     6  O   -0.031426   0.004647   0.000137
     7  C    0.005047   0.000161   0.000058
     8  C    0.005950   0.001997   0.000270
     9  C   -0.000017  -0.000000   0.000000
    10  H    0.000002   0.000000   0.000000
    11  C   -0.001004  -0.000001  -0.000000
    12  H   -0.000243   0.000004   0.000003
    13  O    0.000977   0.000052  -0.000058
    14  C   -0.028490   0.234495  -0.032134
    15  H    0.006653  -0.030463   0.009780
    16  H   -0.011635  -0.040286  -0.013601
    17  C    0.383609  -0.041363  -0.009185
    18  H   -0.030220   0.011368  -0.001116
    19  H    0.556023  -0.001916   0.005650
    20  O   -0.001916   8.025601   0.293592
    21  H    0.005650   0.293592   0.434175
          Atomic-Atomic Spin Densities.
               1          2          3          4          5          6
     1  C    0.080689   0.001053   0.013656  -0.006606  -0.032466   0.000450
     2  H    0.001053   0.010270  -0.005008   0.001518   0.003505   0.000044
     3  C    0.013656  -0.005008  -0.081440   0.013599  -0.041465  -0.000130
     4  H   -0.006606   0.001518   0.013599   0.022432  -0.012095  -0.000000
     5  C   -0.032466   0.003505  -0.041465  -0.012095   1.207129   0.000129
     6  O    0.000450   0.000044  -0.000130  -0.000000   0.000129  -0.001203
     7  C    0.019992  -0.003562  -0.006684  -0.001318   0.014692   0.000736
     8  C   -0.007311  -0.000531   0.002270  -0.000049  -0.001724  -0.000768
     9  C    0.005289  -0.000717   0.009221  -0.002672  -0.040850  -0.000233
    10  H    0.000535   0.000027  -0.002664   0.000082  -0.011932  -0.000003
    11  C   -0.006394   0.000781   0.004947   0.000581  -0.029456   0.000426
    12  H    0.000430   0.000100  -0.000610   0.000029   0.003522  -0.000094
    13  O    0.000441   0.000007  -0.000394  -0.000008   0.000143  -0.000184
    14  C    0.000005  -0.000002  -0.000003  -0.000000   0.000001   0.000073
    15  H   -0.000003   0.000001   0.000001   0.000000  -0.000000  -0.000034
    16  H   -0.000002  -0.000000   0.000000   0.000000  -0.000001   0.000002
    17  C   -0.000035   0.000013   0.000022   0.000000  -0.000007  -0.000089
    18  H   -0.000013  -0.000004   0.000003  -0.000000  -0.000002   0.000030
    19  H    0.000001   0.000001  -0.000000   0.000000   0.000001  -0.000078
    20  O    0.000000   0.000000   0.000000   0.000000  -0.000000  -0.000003
    21  H    0.000000   0.000000  -0.000000  -0.000000   0.000000  -0.000000
               7          8          9         10         11         12
     1  C    0.019992  -0.007311   0.005289   0.000535  -0.006394   0.000430
     2  H   -0.003562  -0.000531  -0.000717   0.000027   0.000781   0.000100
     3  C   -0.006684   0.002270   0.009221  -0.002664   0.004947  -0.000610
     4  H   -0.001318  -0.000049  -0.002672   0.000082   0.000581   0.000029
     5  C    0.014692  -0.001724  -0.040850  -0.011932  -0.029456   0.003522
     6  O    0.000736  -0.000768  -0.000233  -0.000003   0.000426  -0.000094
     7  C   -0.095146   0.010723  -0.004568  -0.001572   0.015071  -0.003706
     8  C    0.010723   0.009745   0.002253  -0.000024  -0.006568  -0.000600
     9  C   -0.004568   0.002253  -0.080564   0.013845   0.008972  -0.004953
    10  H   -0.001572  -0.000024   0.013845   0.022455  -0.006953   0.001684
    11  C    0.015071  -0.006568   0.008972  -0.006953   0.087362   0.000937
    12  H   -0.003706  -0.000600  -0.004953   0.001684   0.000937   0.010219
    13  O    0.000753   0.000394  -0.000126  -0.000000   0.000402   0.000024
    14  C   -0.000038  -0.000057  -0.000003  -0.000000  -0.000007  -0.000005
    15  H    0.000031   0.000008   0.000000   0.000000   0.000003   0.000001
    16  H    0.000014   0.000012   0.000001   0.000000  -0.000010  -0.000006
    17  C    0.000040  -0.000080   0.000030   0.000001   0.000044   0.000074
    18  H    0.000023   0.000056   0.000003  -0.000000  -0.000029  -0.000011
    19  H   -0.000013  -0.000002  -0.000003   0.000000   0.000025   0.000023
    20  O    0.000000   0.000002   0.000000   0.000000   0.000000  -0.000000
    21  H    0.000000  -0.000000  -0.000000   0.000000   0.000000   0.000000
              13         14         15         16         17         18
     1  C    0.000441   0.000005  -0.000003  -0.000002  -0.000035  -0.000013
     2  H    0.000007  -0.000002   0.000001  -0.000000   0.000013  -0.000004
     3  C   -0.000394  -0.000003   0.000001   0.000000   0.000022   0.000003
     4  H   -0.000008  -0.000000   0.000000   0.000000   0.000000  -0.000000
     5  C    0.000143   0.000001  -0.000000  -0.000001  -0.000007  -0.000002
     6  O   -0.000184   0.000073  -0.000034   0.000002  -0.000089   0.000030
     7  C    0.000753  -0.000038   0.000031   0.000014   0.000040   0.000023
     8  C    0.000394  -0.000057   0.000008   0.000012  -0.000080   0.000056
     9  C   -0.000126  -0.000003   0.000000   0.000001   0.000030   0.000003
    10  H   -0.000000  -0.000000   0.000000   0.000000   0.000001  -0.000000
    11  C    0.000402  -0.000007   0.000003  -0.000010   0.000044  -0.000029
    12  H    0.000024  -0.000005   0.000001  -0.000006   0.000074  -0.000011
    13  O   -0.008534  -0.000018  -0.000025  -0.000004   0.000123   0.000006
    14  C   -0.000018  -0.000321   0.000045   0.000049   0.000071   0.000038
    15  H   -0.000025   0.000045   0.000020  -0.000010   0.000007  -0.000012
    16  H   -0.000004   0.000049  -0.000010  -0.000016  -0.000034   0.000003
    17  C    0.000123   0.000071   0.000007  -0.000034   0.000022  -0.000182
    18  H    0.000006   0.000038  -0.000012   0.000003  -0.000182   0.000132
    19  H    0.000006  -0.000038  -0.000000   0.000001   0.000076  -0.000016
    20  O   -0.000001   0.000051  -0.000014  -0.000006  -0.000020   0.000001
    21  H   -0.000000  -0.000011   0.000001   0.000000   0.000005  -0.000000
              19         20         21
     1  C    0.000001   0.000000   0.000000
     2  H    0.000001   0.000000   0.000000
     3  C   -0.000000   0.000000  -0.000000
     4  H    0.000000   0.000000  -0.000000
     5  C    0.000001  -0.000000   0.000000
     6  O   -0.000078  -0.000003  -0.000000
     7  C   -0.000013   0.000000   0.000000
     8  C   -0.000002   0.000002  -0.000000
     9  C   -0.000003   0.000000  -0.000000
    10  H    0.000000   0.000000   0.000000
    11  C    0.000025   0.000000   0.000000
    12  H    0.000023  -0.000000   0.000000
    13  O    0.000006  -0.000001  -0.000000
    14  C   -0.000038   0.000051  -0.000011
    15  H   -0.000000  -0.000014   0.000001
    16  H    0.000001  -0.000006   0.000000
    17  C    0.000076  -0.000020   0.000005
    18  H   -0.000016   0.000001  -0.000000
    19  H    0.000049   0.000001   0.000002
    20  O    0.000001  -0.000022   0.000001
    21  H    0.000002   0.000001   0.000005
 Mulliken charges and spin densities:
               1          2
     1  C   -0.148685   0.069710
     2  H    0.185419   0.007495
     3  C   -0.183276  -0.094680
     4  H    0.153760   0.015494
     5  C    0.053993   1.059123
     6  O   -0.284605  -0.000932
     7  C    0.010979  -0.054532
     8  C    0.369042   0.007748
     9  C   -0.183885  -0.095074
    10  H    0.151945   0.015481
    11  C   -0.159712   0.070134
    12  H    0.171212   0.007058
    13  O   -0.344138  -0.006997
    14  C   -0.107378  -0.000169
    15  H    0.163212   0.000018
    16  H    0.124114  -0.000006
    17  C   -0.134549   0.000080
    18  H    0.167029   0.000024
    19  H    0.140979   0.000035
    20  O   -0.457887  -0.000010
    21  H    0.312430   0.000002
 Sum of Mulliken charges =  -0.00000   1.00000
 Mulliken charges and spin densities with hydrogens summed into heavy atoms:
               1          2
     1  C    0.036734   0.077204
     3  C   -0.029515  -0.079186
     5  C    0.053993   1.059123
     6  O   -0.284605  -0.000932
     7  C    0.010979  -0.054532
     8  C    0.369042   0.007748
     9  C   -0.031939  -0.079593
    11  C    0.011500   0.077191
    13  O   -0.344138  -0.006997
    14  C    0.179948  -0.000157
    17  C    0.173460   0.000139
    20  O   -0.145457  -0.000009
 Electronic spatial extent (au):  <R**2>=          20778.8942
 Charge=             -0.0000 electrons
 Dipole moment (field-independent basis, Debye):
    X=              0.5633    Y=              2.7943    Z=             -1.0891  Tot=              3.0514
 Quadrupole moment (field-independent basis, Debye-Ang):
   XX=            -75.0310   YY=            -38.9777   ZZ=            -85.2680
   XY=             -9.1311   XZ=              5.8239   YZ=             20.1545
 Traceless Quadrupole moment (field-independent basis, Debye-Ang):
   XX=             -8.6054   YY=             27.4479   ZZ=            -18.8424
   XY=             -9.1311   XZ=              5.8239   YZ=             20.1545
 Octapole moment (field-independent basis, Debye-Ang**2):
  XXX=            357.7699  YYY=           -605.8159  ZZZ=          -1433.1666  XYY=              8.8539
  XXY=           -260.6215  XXZ=           -474.3606  XZZ=            179.0157  YZZ=           -127.9886
  YYZ=           -192.3333  XYZ=            -74.6243
 Hexadecapole moment (field-independent basis, Debye-Ang**3):
 XXXX=          -2719.7428 YYYY=          -5726.3044 ZZZZ=         -18625.7549 XXXY=           1449.3903
 XXXZ=           3016.7741 YYYX=            715.7785 YYYZ=          -3479.9307 ZZZX=           3475.4090
 ZZZY=          -4058.0418 XXYY=          -1272.4001 XXZZ=          -3787.6642 YYZZ=          -2191.5005
 XXYZ=          -1584.6949 YYXZ=              5.4232 ZZXY=            -72.4746
 N-N= 6.510704872889D+02 E-N=-2.642625000977D+03  KE= 5.711869888575D+02
                          Isotropic Fermi Contact Couplings
        Atom                 a.u.       MegaHertz       Gauss      10(-4) cm-1
     1  C(13)              0.04685      52.66638      18.79267      17.56761
     2  H(1)               0.00279      12.46126       4.44649       4.15663
     3  C(13)              0.01509      16.95903       6.05140       5.65692
     4  H(1)               0.01080      48.28706      17.23002      16.10683
     5  C(13)              0.45853     515.47928     183.93583     171.94538
     6  O(17)              0.00073      -0.44483      -0.15873      -0.14838
     7  C(13)             -0.00895     -10.06219      -3.59044      -3.35639
     8  C(13)              0.00350       3.93014       1.40237       1.31095
     9  C(13)              0.01546      17.38490       6.20336       5.79898
    10  H(1)               0.01083      48.41730      17.27650      16.15027
    11  C(13)              0.04739      53.27753      19.01075      17.77147
    12  H(1)               0.00264      11.79196       4.20767       3.93338
    13  O(17)             -0.00089       0.54167       0.19328       0.18068
    14  C(13)             -0.00020      -0.22326      -0.07966      -0.07447
    15  H(1)               0.00000       0.00729       0.00260       0.00243
    16  H(1)              -0.00000      -0.00265      -0.00095      -0.00089
    17  C(13)              0.00006       0.06336       0.02261       0.02114
    18  H(1)              -0.00002      -0.09768      -0.03486      -0.03258
    19  H(1)               0.00001       0.02367       0.00845       0.00790
    20  O(17)             -0.00000       0.00193       0.00069       0.00064
    21  H(1)               0.00000       0.00158       0.00056       0.00053
 --------------------------------------------------------
       Center         ----  Spin Dipole Couplings  ----
                      3XX-RR        3YY-RR        3ZZ-RR
 --------------------------------------------------------
     1   Atom        0.007982     -0.040310      0.032328
     2   Atom       -0.003475      0.002792      0.000683
     3   Atom       -0.058915      0.051995      0.006921
     4   Atom       -0.011999      0.021720     -0.009721
     5   Atom        0.033220     -0.571320      0.538100
     6   Atom       -0.003801      0.002847      0.000955
     7   Atom       -0.025335      0.018653      0.006682
     8   Atom        0.000539     -0.002442      0.001903
     9   Atom       -0.051674      0.061583     -0.009908
    10   Atom       -0.011137      0.022654     -0.011517
    11   Atom        0.008985     -0.039085      0.030100
    12   Atom       -0.002567      0.003856     -0.001289
    13   Atom       -0.015354      0.013598      0.001755
    14   Atom        0.000026     -0.000273      0.000247
    15   Atom        0.000210     -0.000388      0.000178
    16   Atom        0.000335     -0.000349      0.000014
    17   Atom       -0.000053     -0.000483      0.000535
    18   Atom       -0.000105     -0.000436      0.000541
    19   Atom       -0.000090     -0.000316      0.000406
    20   Atom        0.000010     -0.000170      0.000160
    21   Atom        0.000067     -0.000171      0.000104
 --------------------------------------------------------
                        XY            XZ            YZ
 --------------------------------------------------------
     1   Atom        0.004642     -0.028985     -0.002014
     2   Atom        0.003471     -0.003298     -0.006512
     3   Atom        0.021857     -0.065982     -0.058012
     4   Atom        0.001712     -0.000871     -0.008242
     5   Atom       -0.016707     -0.633752      0.054281
     6   Atom       -0.000600     -0.005699     -0.000857
     7   Atom       -0.005768     -0.039472     -0.003322
     8   Atom       -0.000092     -0.001666      0.000594
     9   Atom       -0.045503     -0.065904      0.040529
    10   Atom       -0.005781     -0.000894      0.002759
    11   Atom       -0.003942     -0.028703      0.010559
    12   Atom       -0.004710     -0.003340      0.005469
    13   Atom       -0.003776     -0.022089     -0.002660
    14   Atom       -0.000057     -0.000597      0.000099
    15   Atom        0.000028     -0.000607     -0.000015
    16   Atom       -0.000183     -0.000581      0.000166
    17   Atom       -0.000118     -0.000787      0.000189
    18   Atom       -0.000042     -0.000530      0.000044
    19   Atom       -0.000195     -0.000519      0.000309
    20   Atom       -0.000049     -0.000285      0.000059
    21   Atom       -0.000089     -0.000284      0.000096
 --------------------------------------------------------


 ---------------------------------------------------------------------------------
              Anisotropic Spin Dipole Couplings in Principal Axis System
 ---------------------------------------------------------------------------------

       Atom             a.u.   MegaHertz   Gauss  10(-4) cm-1        Axes

              Baa    -0.0408    -5.470    -1.952    -1.825 -0.1026  0.9946 -0.0133
     1 C(13)  Bbb    -0.0110    -1.480    -0.528    -0.494  0.8258  0.0926  0.5564
              Bcc     0.0518     6.950     2.480     2.318 -0.5546 -0.0461  0.8308
 
              Baa    -0.0053    -2.830    -1.010    -0.944  0.8254  0.0939  0.5567
     2 H(1)   Bbb    -0.0047    -2.520    -0.899    -0.840 -0.4552  0.6938  0.5580
              Bcc     0.0100     5.350     1.909     1.785  0.3338  0.7140 -0.6154
 
              Baa    -0.1008   -13.533    -4.829    -4.514  0.8261  0.0928  0.5558
     3 C(13)  Bbb    -0.0102    -1.374    -0.490    -0.458 -0.4571  0.6870  0.5648
              Bcc     0.1111    14.907     5.319     4.972  0.3294  0.7207 -0.6100
 
              Baa    -0.0124    -6.612    -2.359    -2.206  0.8263  0.0928  0.5555
     4 H(1)   Bbb    -0.0115    -6.112    -2.181    -2.039 -0.5608  0.2268  0.7963
              Bcc     0.0238    12.724     4.540     4.244  0.0521  0.9695 -0.2394
 
              Baa    -0.5748   -77.131   -27.522   -25.728 -0.0572  0.9951 -0.0811
     5 C(13)  Bbb    -0.3950   -53.001   -18.912   -17.679  0.8262  0.0928  0.5557
              Bcc     0.9698   130.132    46.434    43.407 -0.5605  0.0352  0.8274
 
              Baa    -0.0077     0.556     0.199     0.186  0.8271  0.0922  0.5545
     6 O(17)  Bbb     0.0029    -0.207    -0.074    -0.069 -0.1847  0.9762  0.1132
              Bcc     0.0048    -0.349    -0.125    -0.117 -0.5309 -0.1961  0.8245
 
              Baa    -0.0525    -7.050    -2.516    -2.352  0.8261  0.0929  0.5558
     7 C(13)  Bbb     0.0193     2.584     0.922     0.862 -0.0585  0.9951 -0.0794
              Bcc     0.0333     4.466     1.594     1.490 -0.5605  0.0330  0.8275
 
              Baa    -0.0025    -0.339    -0.121    -0.113 -0.0530  0.9869 -0.1522
     8 C(13)  Bbb    -0.0005    -0.073    -0.026    -0.024  0.8342  0.1275  0.5365
              Bcc     0.0031     0.413     0.147     0.138 -0.5488  0.0986  0.8301
 
              Baa    -0.1011   -13.568    -4.842    -4.526  0.8261  0.0926  0.5558
     9 C(13)  Bbb    -0.0100    -1.344    -0.480    -0.448 -0.3849 -0.6277  0.6767
              Bcc     0.1111    14.912     5.321     4.974 -0.4115  0.7730  0.4829
 
              Baa    -0.0124    -6.609    -2.358    -2.204  0.8258  0.0924  0.5564
    10 H(1)   Bbb    -0.0115    -6.115    -2.182    -2.040 -0.5395 -0.1583  0.8270
              Bcc     0.0238    12.724     4.540     4.244 -0.1645  0.9831  0.0808
 
              Baa    -0.0407    -5.457    -1.947    -1.820 -0.0089  0.9885 -0.1511
    11 C(13)  Bbb    -0.0108    -1.446    -0.516    -0.482  0.8260  0.0924  0.5561
              Bcc     0.0514     6.903     2.463     2.303 -0.5636  0.1199  0.8173
 
              Baa    -0.0053    -2.850    -1.017    -0.951  0.8261  0.0925  0.5559
    12 H(1)   Bbb    -0.0046    -2.474    -0.883    -0.825 -0.3782 -0.6403  0.6686
              Bcc     0.0100     5.324     1.900     1.776 -0.4177  0.7626  0.4939
 
              Baa    -0.0310     2.241     0.800     0.747  0.8205  0.1031  0.5623
    13 O(17)  Bbb     0.0141    -1.019    -0.363    -0.340 -0.0971  0.9944 -0.0407
              Bcc     0.0169    -1.222    -0.436    -0.408 -0.5633 -0.0212  0.8259
 
              Baa    -0.0005    -0.063    -0.023    -0.021  0.7590 -0.1015  0.6432
    14 C(13)  Bbb    -0.0003    -0.038    -0.014    -0.013  0.1474  0.9889 -0.0179
              Bcc     0.0008     0.101     0.036     0.034 -0.6342  0.1084  0.7655
 
              Baa    -0.0004    -0.222    -0.079    -0.074  0.6670 -0.3191  0.6733
    15 H(1)   Bbb    -0.0004    -0.206    -0.073    -0.069  0.2056  0.9474  0.2454
              Bcc     0.0008     0.428     0.153     0.143  0.7161  0.0253 -0.6975
 
              Baa    -0.0004    -0.235    -0.084    -0.078  0.4553 -0.4710  0.7555
    16 H(1)   Bbb    -0.0004    -0.208    -0.074    -0.069  0.4349  0.8582  0.2728
              Bcc     0.0008     0.442     0.158     0.148  0.7769 -0.2044 -0.5956
 
              Baa    -0.0006    -0.081    -0.029    -0.027  0.8052 -0.1268  0.5792
    17 C(13)  Bbb    -0.0005    -0.069    -0.025    -0.023  0.1833  0.9823 -0.0398
              Bcc     0.0011     0.149     0.053     0.050 -0.5639  0.1382  0.8142
 
              Baa    -0.0004    -0.237    -0.084    -0.079  0.3138  0.9410  0.1266
    18 H(1)   Bbb    -0.0004    -0.212    -0.076    -0.071  0.8134 -0.3351  0.4754
              Bcc     0.0008     0.449     0.160     0.150 -0.4898  0.0462  0.8706
 
              Baa    -0.0004    -0.230    -0.082    -0.077  0.1991  0.9531 -0.2280
    19 H(1)   Bbb    -0.0004    -0.222    -0.079    -0.074  0.8373 -0.0446  0.5449
              Bcc     0.0008     0.452     0.161     0.151 -0.5092  0.2994  0.8069
 
              Baa    -0.0002     0.015     0.005     0.005  0.7964  0.1039  0.5958
    20 O(17)  Bbb    -0.0002     0.013     0.005     0.004 -0.0009  0.9853 -0.1706
              Bcc     0.0004    -0.028    -0.010    -0.009 -0.6047  0.1353  0.7848
 
              Baa    -0.0002    -0.108    -0.038    -0.036 -0.1006  0.9179 -0.3837
    21 H(1)   Bbb    -0.0002    -0.106    -0.038    -0.035  0.7387  0.3273  0.5893
              Bcc     0.0004     0.214     0.076     0.071 -0.6665  0.2242  0.7110
 

 ---------------------------------------------------------------------------------

   1 Symmetry operations used in ECPInt.
 ECPInt:  NShTT=   14196 NPrTT=   43656 LenC2=   13013 LenP2D=   30166.
 LDataN:  DoStor=T MaxTD1= 7 Len=  274
 Calling FoFJK, ICntrl=      2127 FMM=F ISym2X=0 I1Cent= 0 IOpClX= 1 NMat=1 NMatS=1 NMatT=0.
 -------------------------------------------------------------------
 Center     Atomic                   Forces (Hartrees/Bohr)
 Number     Number              X              Y              Z
 -------------------------------------------------------------------
      1        6          -0.000389590    0.000963510    0.000410558
      2        1           0.001716363    0.004809133   -0.003373655
      3        6          -0.000004676    0.000890797   -0.000140554
      4        1          -0.002063019    0.005679597    0.002125170
      5        6          -0.003753055    0.000374314    0.005518153
      6        8           0.000856761    0.001549723   -0.002425281
      7        6           0.002265672   -0.000352973   -0.003348271
      8        6           0.000697840   -0.001639180   -0.000971553
      9        6           0.000237936   -0.000846206   -0.000182086
     10        1          -0.001418540   -0.005458026    0.003024529
     11        6          -0.000400367   -0.001139192    0.000747873
     12        1           0.002343103   -0.005019618   -0.002632085
     13        8           0.000674189    0.000726821   -0.000795419
     14        6           0.003585683   -0.004581936   -0.011635029
     15        1          -0.000285144    0.005553702    0.001984598
     16        1           0.000954318   -0.002672236    0.005308210
     17        6          -0.000255154    0.001007196    0.008794958
     18        1          -0.001720242    0.003540510   -0.003922365
     19        1          -0.000166264   -0.005094775   -0.001908362
     20        8          -0.002383652    0.003343136    0.002829743
     21        1          -0.000492164   -0.001634298    0.000590866
 -------------------------------------------------------------------
 Cartesian Forces:  Max     0.011635029 RMS     0.003200229

 GradGradGradGradGradGradGradGradGradGradGradGradGradGradGradGradGradGrad
 Berny optimization.
 FormGI is forming the generalized inverse of G from B-inverse, IUseBI=4.
 Internal  Forces:  Max     0.007522519 RMS     0.002545381
 Search for a local minimum.
 Step number   1 out of a maximum of  105
 All quantities printed in internal units (Hartrees-Bohrs-Radians)
 Mixed Optimization -- RFO/linear search
 Second derivative matrix not updated -- first step.
 ITU=  0
     Eigenvalues ---    0.00333   0.00383   0.00896   0.01114   0.01803
     Eigenvalues ---    0.02180   0.02182   0.02203   0.02228   0.02276
     Eigenvalues ---    0.02304   0.02415   0.02470   0.05103   0.05264
     Eigenvalues ---    0.05897   0.06089   0.06946   0.11494   0.11663
     Eigenvalues ---    0.13056   0.13925   0.15735   0.15960   0.16010
     Eigenvalues ---    0.16018   0.16176   0.20686   0.21960   0.22855
     Eigenvalues ---    0.23132   0.23988   0.24262   0.26448   0.28779
     Eigenvalues ---    0.31408   0.32725   0.34201   0.34568   0.34766
     Eigenvalues ---    0.35035   0.35688   0.35742   0.35809   0.35991
     Eigenvalues ---    0.40557   0.43036   0.43353   0.44832   0.46473
     Eigenvalues ---    0.47473   0.48615   0.49407   0.52944   0.55439
     Eigenvalues ---    0.60553   1.05487
 RFO step:  Lambda=-1.59909544D-03 EMin= 3.33025404D-03
 Linear search not attempted -- first point.
 Iteration  1 RMS(Cart)=  0.02052100 RMS(Int)=  0.00015657
 Iteration  2 RMS(Cart)=  0.00023863 RMS(Int)=  0.00001221
 Iteration  3 RMS(Cart)=  0.00000004 RMS(Int)=  0.00001221
 Variable       Old X    -DE/DX   Delta X   Delta X   Delta X     New X
                                 (Linear)    (Quad)   (Total)
    R1        2.06240  -0.00611   0.00000  -0.01694  -0.01694   2.04546
    R2        2.63967  -0.00632   0.00000  -0.01325  -0.01325   2.62642
    R3        2.64544  -0.00671   0.00000  -0.01498  -0.01499   2.63046
    R4        2.06226  -0.00640   0.00000  -0.01792  -0.01792   2.04434
    R5        2.60549  -0.00735   0.00000  -0.01455  -0.01455   2.59095
    R6        2.60446  -0.00752   0.00000  -0.01504  -0.01504   2.58942
    R7        2.53547   0.00080   0.00000   0.00105   0.00105   2.53652
    R8        2.68922   0.00208   0.00000   0.00442   0.00442   2.69364
    R9        2.82099  -0.00260   0.00000  -0.00777  -0.00777   2.81322
   R10        2.64554  -0.00669   0.00000  -0.01276  -0.01276   2.63278
   R11        2.27144  -0.00117   0.00000  -0.00131  -0.00131   2.27013
   R12        2.06233  -0.00640   0.00000  -0.01784  -0.01784   2.04449
   R13        2.64227  -0.00619   0.00000  -0.01284  -0.01284   2.62942
   R14        2.06010  -0.00610   0.00000  -0.01747  -0.01747   2.04264
   R15        2.07554  -0.00583   0.00000  -0.01664  -0.01664   2.05890
   R16        2.08892  -0.00588   0.00000  -0.01766  -0.01766   2.07126
   R17        2.87996  -0.00117   0.00000  -0.00408  -0.00408   2.87588
   R18        2.64919   0.00464   0.00000   0.01042   0.01042   2.65961
   R19        2.07556  -0.00555   0.00000  -0.01602  -0.01602   2.05955
   R20        2.07708  -0.00542   0.00000  -0.01616  -0.01616   2.06092
   R21        1.81957  -0.00146   0.00000  -0.00296  -0.00296   1.81661
    A1        2.11940  -0.00041   0.00000  -0.00313  -0.00313   2.11628
    A2        2.06801   0.00045   0.00000   0.00329   0.00329   2.07130
    A3        2.09577  -0.00003   0.00000  -0.00016  -0.00016   2.09561
    A4        2.11299   0.00010   0.00000   0.00002   0.00002   2.11301
    A5        2.03629   0.00013   0.00000   0.00074   0.00074   2.03703
    A6        2.13390  -0.00023   0.00000  -0.00077  -0.00077   2.13314
    A7        2.19428   0.00016   0.00000   0.00018   0.00018   2.19447
    A8        2.03727  -0.00117   0.00000  -0.00764  -0.00764   2.02963
    A9        2.04832   0.00011   0.00000   0.00134   0.00134   2.04966
   A10        2.10894  -0.00033   0.00000  -0.00079  -0.00080   2.10814
   A11        2.12593   0.00021   0.00000  -0.00055  -0.00055   2.12538
   A12        1.96338  -0.00011   0.00000   0.00036   0.00036   1.96374
   A13        2.15126   0.00058   0.00000   0.00192   0.00192   2.15318
   A14        2.16854  -0.00046   0.00000  -0.00227  -0.00227   2.16627
   A15        2.13270  -0.00021   0.00000  -0.00157  -0.00157   2.13114
   A16        2.03931   0.00004   0.00000  -0.00063  -0.00063   2.03868
   A17        2.11117   0.00017   0.00000   0.00220   0.00220   2.11337
   A18        2.09178   0.00003   0.00000   0.00066   0.00066   2.09244
   A19        2.08393   0.00062   0.00000   0.00344   0.00344   2.08737
   A20        2.10747  -0.00064   0.00000  -0.00410  -0.00410   2.10338
   A21        1.88203   0.00006   0.00000   0.00460   0.00454   1.88657
   A22        1.90165   0.00075   0.00000   0.00785   0.00783   1.90948
   A23        1.87300  -0.00047   0.00000  -0.00337  -0.00337   1.86964
   A24        1.90465   0.00062   0.00000   0.00484   0.00480   1.90944
   A25        1.96728  -0.00097   0.00000  -0.01205  -0.01205   1.95523
   A26        1.93337   0.00005   0.00000  -0.00120  -0.00120   1.93217
   A27        1.94598  -0.00112   0.00000  -0.00899  -0.00898   1.93700
   A28        1.92403   0.00030   0.00000   0.00234   0.00236   1.92638
   A29        1.84128  -0.00004   0.00000  -0.00547  -0.00547   1.83580
   A30        1.91547   0.00064   0.00000   0.00677   0.00676   1.92223
   A31        1.92616   0.00043   0.00000   0.00418   0.00414   1.93030
   A32        1.90962  -0.00023   0.00000   0.00084   0.00081   1.91043
   A33        1.89778   0.00192   0.00000   0.01112   0.01112   1.90890
    D1        0.00019  -0.00000   0.00000  -0.00068  -0.00067  -0.00049
    D2       -3.14150   0.00000   0.00000  -0.00031  -0.00031   3.14138
    D3        3.14137  -0.00000   0.00000  -0.00026  -0.00027   3.14111
    D4       -0.00031   0.00000   0.00000   0.00010   0.00010  -0.00021
    D5        0.00041   0.00001   0.00000   0.00093   0.00093   0.00134
    D6        3.14131   0.00001   0.00000   0.00054   0.00055  -3.14133
    D7       -3.14079   0.00001   0.00000   0.00053   0.00053  -3.14026
    D8        0.00011   0.00000   0.00000   0.00015   0.00015   0.00026
    D9        0.00022  -0.00000   0.00000  -0.00011  -0.00011   0.00011
   D10       -3.14146   0.00000   0.00000   0.00026   0.00026  -3.14120
   D11        3.14114  -0.00000   0.00000   0.00021   0.00021   3.14136
   D12        0.00008  -0.00000   0.00000  -0.00013  -0.00013  -0.00005
   D13       -3.12665  -0.00014   0.00000  -0.00903  -0.00903  -3.13568
   D14        0.01254  -0.00023   0.00000  -0.00850  -0.00850   0.00405
   D15       -1.41282  -0.00025   0.00000  -0.02640  -0.02638  -1.43920
   D16        0.71923   0.00001   0.00000  -0.02228  -0.02227   0.69695
   D17        2.77914  -0.00013   0.00000  -0.02318  -0.02321   2.75593
   D18       -3.13870  -0.00003   0.00000   0.00051   0.00051  -3.13819
   D19        0.00532   0.00006   0.00000  -0.00004  -0.00004   0.00528
   D20        0.00359  -0.00003   0.00000   0.00090   0.00090   0.00448
   D21       -3.13558   0.00007   0.00000   0.00035   0.00035  -3.13523
   D22        0.00020  -0.00001   0.00000  -0.00039  -0.00040  -0.00020
   D23       -3.14150   0.00000   0.00000   0.00031   0.00031  -3.14119
   D24        3.14107  -0.00002   0.00000  -0.00079  -0.00079   3.14028
   D25       -0.00063  -0.00000   0.00000  -0.00009  -0.00009  -0.00072
   D26       -0.00029   0.00001   0.00000   0.00038   0.00038   0.00009
   D27        3.14141  -0.00001   0.00000  -0.00034  -0.00033   3.14108
   D28       -3.14136   0.00001   0.00000   0.00004   0.00004  -3.14132
   D29        0.00034  -0.00000   0.00000  -0.00067  -0.00067  -0.00033
   D30        1.15717   0.00051   0.00000   0.01019   0.01021   1.16738
   D31       -0.97980   0.00045   0.00000   0.00859   0.00862  -0.97118
   D32       -3.08568   0.00004   0.00000   0.00051   0.00052  -3.08517
   D33       -0.89370  -0.00034   0.00000  -0.00256  -0.00258  -0.89628
   D34       -3.03068  -0.00041   0.00000  -0.00416  -0.00416  -3.03484
   D35        1.14663  -0.00081   0.00000  -0.01224  -0.01227   1.13436
   D36       -3.06946   0.00043   0.00000   0.01017   0.01017  -3.05929
   D37        1.07675   0.00036   0.00000   0.00857   0.00858   1.08533
   D38       -1.02913  -0.00004   0.00000   0.00049   0.00048  -1.02865
   D39       -2.96790   0.00048   0.00000   0.01634   0.01632  -2.95158
   D40       -0.89842  -0.00031   0.00000   0.01280   0.01280  -0.88562
   D41        1.24133  -0.00017   0.00000   0.00955   0.00957   1.25090
         Item               Value     Threshold  Converged?
 Maximum Force            0.007523     0.000450     NO 
 RMS     Force            0.002545     0.000300     NO 
 Maximum Displacement     0.058238     0.001800     NO 
 RMS     Displacement     0.020468     0.001200     NO 
 Predicted change in Energy=-8.056044D-04
 GradGradGradGradGradGradGradGradGradGradGradGradGradGradGradGradGradGrad

                          Input orientation:                          
 ---------------------------------------------------------------------
 Center     Atomic      Atomic             Coordinates (Angstroms)
 Number     Number       Type             X           Y           Z
 ---------------------------------------------------------------------
      1          6           0       -0.373055    2.517630    4.990383
      2          1           0       -0.630428    1.621549    5.540305
      3          6           0        0.399868    2.458708    3.836788
      4          1           0        0.765720    1.513885    3.457584
      5          6           0        0.669693    3.650082    3.214170
      6          8           0       -2.046909    4.971649    7.062680
      7          6           0       -0.832448    3.744755    5.460192
      8          6           0       -1.653946    3.740004    6.701691
      9          6           0        0.244959    4.884648    3.630182
     10          1           0        0.493468    5.789695    3.092005
     11          6           0       -0.527640    4.925644    4.786681
     12          1           0       -0.894120    5.868019    5.168784
     13          8           0       -1.936520    2.748872    7.318892
     14          6           0       -4.296682    4.761277    7.954637
     15          1           0       -4.401223    3.715580    7.667159
     16          1           0       -4.634240    5.380360    7.115502
     17          6           0       -2.833782    5.061245    8.247841
     18          1           0       -2.455377    4.377081    9.007140
     19          1           0       -2.714518    6.088919    8.592885
     20          8           0       -5.084650    4.955669    9.104469
     21          1           0       -5.154167    5.896726    9.288030
 ---------------------------------------------------------------------
                    Distance matrix (angstroms):
                    1          2          3          4          5
     1  C    0.000000
     2  H    1.082411   0.000000
     3  C    1.389843   2.159702   0.000000
     4  H    2.157263   2.509690   1.081820   0.000000
     5  C    2.350469   3.349054   1.371069   2.152164   0.000000
     6  O    3.621935   3.942996   4.765288   5.732689   4.892596
     7  C    1.391977   2.134299   2.409971   3.397258   2.703703
     8  C    2.462409   2.623787   3.750672   4.618941   4.191681
     9  C    2.799083   3.881068   2.439645   3.415117   1.370262
    10  H    3.880865   4.962938   3.414518   4.300037   2.150331
    11  C    2.421554   3.390509   2.801488   3.883217   2.352330
    12  H    3.395356   4.270839   3.882270   4.964046   3.344439
    13  O    2.814223   2.477924   4.203326   4.872062   4.945025
    14  C    5.405146   5.397065   6.657033   7.509791   6.954974
    15  H    4.982605   4.809092   6.269126   7.018923   6.748895
    16  H    5.555992   5.713179   6.680438   7.582186   6.807786
    17  C    4.810009   4.900717   6.056986   6.963242   6.293136
    18  H    4.891622   4.789816   6.210082   7.026445   6.622167
    19  H    5.587001   5.798196   6.745242   7.708067   6.806716
    20  O    6.713335   6.607549   8.003949   8.829496   8.337424
    21  H    7.262720   7.265452   8.507838   9.394065   8.709566
                    6          7          8          9         10
     6  O    0.000000
     7  C    2.355451   0.000000
     8  C    1.342268   1.488691   0.000000
     9  C    4.128229   2.410208   3.788168   0.000000
    10  H    4.784242   3.398256   4.673591   1.081897   0.000000
    11  C    2.736872   1.393206   2.518247   1.391431   2.158975
    12  H    2.391494   2.144055   2.730492   2.152165   2.498909
    13  O    2.240216   2.380236   1.201302   4.788212   5.746130
    14  C    2.429264   4.388222   3.097891   6.272371   6.902780
    15  H    2.736037   4.196154   2.912088   6.265055   7.013700
    16  H    2.619945   4.457451   3.426974   6.016624   6.530656
    17  C    1.425413   3.675523   2.351227   5.552712   6.179310
    18  H    2.073954   3.951528   2.522549   6.038305   6.758697
    19  H    2.008861   4.341780   3.196690   5.902304   6.374981
    20  O    3.660195   5.729597   4.361296   7.640523   8.243829
    21  H    3.932302   6.161215   4.857174   7.885817   8.384388
                   11         12         13         14         15
    11  C    0.000000
    12  H    1.080917   0.000000
    13  O    3.624275   3.929203   0.000000
    14  C    4.926321   4.534676   3.166119   0.000000
    15  H    4.976550   4.814005   2.670314   1.089521   0.000000
    16  H    4.742819   4.244528   3.774094   1.096064   1.769213
    17  C    4.161287   3.727434   2.648602   1.521850   2.145898
    18  H    4.672191   4.403794   2.402178   2.155406   2.453457
    19  H    4.541237   3.884213   3.658450   2.161767   3.055271
    20  O    6.277780   5.820871   4.238981   1.407407   2.017610
    21  H    6.527626   5.925961   4.913221   1.949990   2.819849
                   16         17         18         19         20
    16  H    0.000000
    17  C    2.150738   0.000000
    18  H    3.054882   1.089865   0.000000
    19  H    2.523895   1.090593   1.780211   0.000000
    20  O    2.083080   2.410677   2.693940   2.676471   0.000000
    21  H    2.292780   2.676604   3.109933   2.544023   0.961310
                   21
    21  H    0.000000
 Symmetry turned off by external request.
 Stoichiometry    C9H9O3(2)
 Framework group  C1[X(C9H9O3)]
 Deg. of freedom    57
 Full point group                 C1      NOp   1
 Rotational constants (GHZ):           2.9014065           0.4297992           0.3908929
 Standard basis: def2TZVP (5D, 7F)
   426 basis functions,   684 primitive gaussians,   486 cartesian basis functions
    44 alpha electrons       43 beta electrons
       nuclear repulsion energy       652.8094871425 Hartrees.
 NAtoms=   21 NActive=   21 NUniq=   21 SFac= 1.00D+00 NAtFMM=   60 NAOKFM=F Big=F
 Integral buffers will be    131072 words long.
 Raffenetti 2 integral format.
 Two-electron integral symmetry is turned off.
 One-electron integrals computed using PRISM.
   1 Symmetry operations used in ECPInt.
 ECPInt:  NShTT=   14196 NPrTT=   43656 LenC2=   13025 LenP2D=   30198.
 LDataN:  DoStor=T MaxTD1= 6 Len=  172
 NBasis=   426 RedAO= T EigKep=  1.40D-05  NBF=   426
 NBsUse=   426 1.00D-06 EigRej= -1.00D+00 NBFU=   426
 Initial guess from the checkpoint file:  "/dev/shm/pet_mono_f2hs_4_tzvp.chk"
 B after Tr=     0.013909   -0.021898    0.019250
         Rot=    0.999998    0.001270   -0.000298   -0.001188 Ang=   0.20 deg.
 Initial guess <Sx>= 0.0000 <Sy>= 0.0000 <Sz>= 0.5000 <S**2>= 0.7631 S= 0.5065
 ExpMin= 9.52D-02 ExpMax= 2.70D+04 ExpMxC= 9.22D+02 IAcc=3 IRadAn=         5 AccDes= 0.00D+00
 Harris functional with IExCor= 1009 and IRadAn=       5 diagonalized for initial guess.
 HarFok:  IExCor= 1009 AccDes= 0.00D+00 IRadAn=         5 IDoV= 1 UseB2=F ITyADJ=14
 ICtDFT=  3500011 ScaDFX=  1.000000  1.000000  1.000000  1.000000
 FoFCou: FMM=F IPFlag=           0 FMFlag=      100000 FMFlg1=           0
         NFxFlg=           0 DoJE=T BraDBF=F KetDBF=T FulRan=T
         wScrn=  0.000000 ICntrl=       500 IOpCl=  0 I1Cent=   200000004 NGrid=           0
         NMat0=    1 NMatS0=      1 NMatT0=    0 NMatD0=    1 NMtDS0=    0 NMtDT0=    0
 Symmetry not used in FoFCou.
 Requested convergence on RMS density matrix=1.00D-08 within  32 cycles.
 Requested convergence on MAX density matrix=1.00D-06.
 Requested convergence on             energy=1.00D-06.
 No special actions if energy rises.
 Integral accuracy reduced to 1.0D-05 until final iterations.
[...]
 032,-0.01467568,0.00908905,-0.14584821,-0.01786333,0.12539979,0.001121
 52,0.00144616,0.00601993,0.31331616,0.01823680,-0.06280843,-0.01527352
 ,0.00239367,-0.00309739,-0.00206902,-0.01984707,-0.01566661,0.03158363
 ,-0.00034481,0.00005692,0.00050114,0.01815265,0.02784993,-0.02949278,0
 .00134804,-0.00536787,-0.00108846,-0.04812147,-0.27549400,0.10888735,-
 0.00893348,0.01104500,0.01139304,0.03074396,-0.12254918,-0.03622378,-0
 .01550133,0.00517972,0.02325808,-0.06870765,0.71923006,-0.03228779,0.0
 3087743,0.05051488,0.00324681,-0.00262666,0.00129930,0.02441003,0.0278
 1075,-0.04662808,0.00048243,0.00101582,-0.00089161,0.02413079,-0.08585
 200,-0.00663339,0.00233556,0.00219626,-0.00305072,0.04814177,0.0538315
 5,-0.14889164,0.00817295,0.02011582,-0.01580075,0.11702719,0.03675064,
 -0.24659767,0.00889982,-0.00216200,-0.00772322,-0.24838282,0.00343640,
 0.51347991,0.00408505,-0.00113175,0.00324421,0.00058343,-0.00039512,0.
 00002350,-0.00060235,-0.00087129,-0.00026913,-0.00065279,-0.00002246,-
 0.00042428,0.00306154,0.00127900,0.00599661,-0.00109086,-0.00036732,0.
 00206962,0.00611058,-0.00586763,-0.00266745,-0.00229840,-0.00065223,-0
 .00242772,-0.00046040,0.01467527,0.00617312,-0.00254165,-0.00056913,-0
 .00254006,-0.07719205,0.08627017,0.04106191,0.07080532,-0.00150230,-0.
 00259921,0.00374936,0.00058934,-0.00085800,-0.00064558,-0.00037685,0.0
 0025593,0.00036981,-0.00002338,-0.00001877,-0.00012047,0.00039377,0.00
 163798,0.00035440,0.00055173,0.00155076,-0.00098172,0.00958680,-0.0179
 0101,-0.01075727,0.00101950,-0.00236850,-0.00175903,-0.00145615,0.0039
 6028,0.00238816,-0.00009268,0.00044497,-0.00065943,0.08461619,-0.28048
 202,-0.08597813,-0.09288862,0.29491751,0.00330924,0.00320683,0.0005849
 4,-0.00014060,0.00084161,0.00062637,-0.00033318,0.00109299,-0.00055578
 ,-0.00042644,-0.00012488,-0.00027864,0.00613068,-0.00096605,-0.0018536
 9,0.00183300,0.00029180,-0.00261861,-0.00530546,0.01250678,0.00954050,
 -0.00272231,0.00066992,-0.00005918,0.00892549,-0.02178238,-0.00436004,
 -0.00261724,0.00004659,-0.00036944,0.04134630,-0.08860561,-0.08711141,
 -0.05045555,0.09368877,0.08655083,-0.00003501,-0.00174837,0.00073587,-
 0.00082442,-0.00044282,0.00086688,-0.00028482,-0.00062869,-0.00048658,
 -0.00000790,0.00007647,0.00011365,-0.00014309,-0.00105994,0.00066545,0
 .03160729,0.00615218,-0.00368329,0.00668782,-0.02276618,0.02641977,-0.
 13210517,-0.12298385,0.10053921,-0.00216232,-0.00060657,0.00098702,-0.
 00048691,-0.00000411,0.00026657,0.00008419,0.00422343,0.00309820,0.000
 39128,-0.00016110,0.00027988,0.10207484,0.00357722,-0.00703027,-0.0041
 8066,-0.00043165,0.00259371,0.00010574,-0.00110452,0.00091812,0.001428
 35,-0.00018765,0.00001383,0.00029997,0.00011175,0.00084457,-0.00028094
 ,0.00972668,-0.11674449,0.01271602,-0.01244163,-0.00482304,0.02337613,
 -0.13051466,-0.51932199,0.27810295,-0.00089902,0.00096110,0.00088360,-
 0.00012678,-0.00003776,0.00013721,0.00007267,0.00247704,-0.00002797,0.
 00046893,0.00080461,-0.00069368,0.13810376,0.64124478,-0.00025399,0.00
 394695,-0.00013246,0.00087302,0.00013403,-0.00162546,-0.00040202,0.000
 66327,-0.00020069,0.00015828,-0.00010527,-0.00014750,0.00046640,0.0014
 7357,-0.00077027,-0.00320828,0.01622485,0.02953471,0.02436216,0.038945
 14,-0.02288378,0.10222440,0.27079680,-0.28612118,0.00107410,0.00047907
 ,-0.00320043,0.00029572,-0.00004030,-0.00073203,0.00383192,-0.00635123
 ,-0.00210743,0.00015590,0.00017180,0.00027306,-0.12783615,-0.32141517,
 0.28918256,0.00006336,0.00034509,-0.00010706,-0.00003924,0.00006264,0.
 00007683,0.00010715,0.00006047,-0.00021007,0.00003736,-0.00001434,-0.0
 0003917,0.00012408,-0.00010082,-0.00016166,-0.01416885,-0.00413306,0.0
 0537424,0.00030565,-0.00058779,-0.00004354,-0.00280115,0.00652373,0.00
 110880,0.00002657,-0.00010082,-0.00007009,0.00002770,0.00001898,-0.000
 02842,0.00005115,-0.00015587,-0.00008434,-0.00002993,-0.00010782,0.000
 17093,-0.00128169,-0.00282624,0.00027335,0.48006409,-0.00002944,0.0000
 7743,-0.00007922,0.00005307,-0.00004872,-0.00003866,0.00006734,-0.0000
 4483,-0.00003438,0.00001636,0.00000474,-0.00000565,-0.00000968,-0.0001
 0022,0.00000670,0.00887610,-0.00120059,-0.00025575,-0.00017189,-0.0005
 7545,-0.00006460,0.00333942,0.00675379,-0.00183049,-0.00004036,-0.0000
 0519,0.00011727,-0.00001816,-0.00000113,0.00001005,0.00002008,0.000125
 53,-0.00002588,-0.00006121,-0.00004459,0.00000062,-0.00343851,-0.00163
 470,0.00122112,-0.01081785,0.64902134,-0.00004912,0.00009544,-0.000158
 75,0.00000658,-0.00002670,0.00000372,0.00011850,-0.00001667,-0.0000496
 8,0.00003479,0.00000703,-0.00000236,0.00002510,-0.00009357,-0.00000740
 ,0.04298315,0.00124153,-0.00832486,-0.00083154,-0.00085710,-0.00089016
 ,0.00275410,0.00691638,-0.00037530,-0.00008123,0.00004479,0.00000964,0
 .00002964,0.00000088,-0.00000893,0.00005425,-0.00007614,-0.00012368,0.
 00015847,-0.00002387,0.00011174,-0.00096418,-0.00199807,0.00153528,0.0
 2437490,-0.00515649,0.55699012,0.00000041,0.00003691,-0.00000458,-0.00
 002081,0.00003427,0.00002574,-0.00000081,0.00004350,-0.00000300,0.0000
 0351,-0.00000510,-0.00000287,0.00002196,0.00004569,-0.00004870,0.00213
 648,0.00299376,0.00084490,-0.00010496,0.00028503,-0.00026141,-0.001218
 35,-0.00319132,0.00165187,0.00006540,-0.00002597,-0.00005761,0.0000093
 2,0.00000245,-0.00001335,-0.00000497,-0.00012411,-0.00000937,-0.000004
 05,-0.00000437,-0.00001158,0.00069549,0.00200271,-0.00095674,-0.052196
 96,-0.03104872,-0.00952227,0.06054698,0.00000211,0.00001334,0.00000410
 ,-0.00000693,0.00001400,0.00000723,-0.00000737,0.00000884,0.00000748,-
 0.00000271,-0.00000077,-0.00000244,0.00000375,0.00001471,-0.00000608,-
 0.00092027,0.00077761,0.00074505,-0.00004319,0.00009025,0.00002339,-0.
 00069662,-0.00104864,0.00031193,0.00001180,0.00000251,-0.00000843,0.00
 000122,-0.00000067,-0.00000581,0.00000579,-0.00004610,0.00000756,-0.00
 000038,-0.00000358,-0.00001354,0.00195068,-0.00020167,-0.00024166,-0.0
 2662469,-0.30848516,-0.06026837,0.02743264,0.32809048,0.00000180,-0.00
 001503,-0.00001185,0.00000919,-0.00000194,0.00001583,-0.00000726,-0.00
 000568,-0.00000033,0.00000357,-0.00000020,0.00000276,0.00000179,0.0000
 0746,-0.00000221,-0.00075236,0.00047998,0.00045838,-0.00004822,0.00006
 632,-0.00007404,0.00037279,-0.00047710,0.00031639,0.00000648,-0.000000
 76,-0.00000632,0.00000062,0.00000017,0.00000134,0.00001375,0.00001875,
 -0.00000946,-0.00001240,0.00000322,-0.00000197,0.00062889,-0.00004269,
 -0.00042472,-0.00844861,-0.04810725,-0.06335136,0.00186597,0.06916238,
 0.07531596,-0.00001391,-0.00001555,0.00002299,0.00000080,-0.00001224,-
 0.00001210,0.00000213,-0.00001356,0.00001004,-0.00000292,0.00000008,0.
 00000121,-0.00000928,-0.00000313,0.00001090,0.00335411,-0.00086657,0.0
 0024949,-0.00009141,0.00001005,-0.00002212,0.00013394,0.00096462,-0.00
 021788,-0.00000040,-0.00001491,0.00001455,-0.00000832,0.00000002,0.000
 00648,0.00000082,0.00007467,0.00004499,-0.00006488,-0.00000795,-0.0000
 1286,-0.00004570,-0.00036324,0.00049408,-0.08088675,0.05108407,-0.0659
 3883,0.00212721,-0.00227575,0.00246824,0.08758887,0.00000148,-0.000007
 77,-0.00002463,-0.00000476,0.00000977,0.00002110,-0.00000148,0.0000097
 9,-0.00000472,0.00000574,-0.00000152,0.00000163,0.00001057,0.00001819,
 -0.00001722,0.00094624,0.00001605,-0.00084575,-0.00003193,0.00004482,-
 0.00015293,0.00003474,-0.00086871,0.00070707,0.00001958,-0.00000347,-0
 .00003878,0.00000964,0.00000256,-0.00000187,-0.00000854,-0.00003195,-0
 .00002608,0.00002880,0.00001581,0.00002146,0.00080995,0.00034051,-0.00
 045365,0.04936890,-0.14299051,0.10949347,0.01107962,-0.01539955,0.0234
 3980,-0.05285893,0.14234600,-0.00000468,-0.00001704,0.00001155,-0.0000
 0130,-0.00000231,-0.00000585,-0.00000753,-0.00000805,0.00001119,-0.000
 00281,-0.00000013,0.00000038,-0.00000564,0.00000606,0.00000562,-0.0002
 6205,-0.00009527,0.00207416,0.00002490,0.00003643,0.00004182,-0.000150
 06,-0.00027313,-0.00000073,0.00000817,-0.00000866,0.00000254,-0.000007
 66,0.,0.00000311,-0.00000804,0.00003939,0.00002355,-0.00003060,0.00000
 327,-0.00000164,0.00007785,-0.00006767,-0.00010227,-0.06497113,0.10444
 038,-0.18583207,0.00180338,-0.00316761,0.00768520,0.06475765,-0.118331
 98,0.21507087,0.00033856,0.00039694,0.00030290,0.00004370,0.00007906,0
 .00019864,-0.00008184,0.00005400,-0.00051869,-0.00002040,-0.00003721,-
 0.00008779,0.00012786,-0.00013686,-0.00014733,-0.10811969,0.00800669,0
 .06384916,0.00495238,-0.00032226,0.00020847,-0.01326153,0.02033874,0.0
 1782379,0.00020040,-0.00024396,-0.00009902,0.00003461,0.00002577,-0.00
 003177,-0.00005435,-0.00001249,-0.00028978,-0.00027668,-0.00036639,0.0
 0021556,-0.00328885,-0.00997126,-0.00131826,-0.18492909,-0.02801127,-0
 .05325865,-0.00486082,-0.00148730,-0.00272760,-0.01383779,-0.00531779,
 -0.00390622,0.48325466,0.00080022,0.00023274,-0.00105704,0.00003780,-0
 .00005124,-0.00001514,-0.00009196,-0.00049567,0.00008169,0.00003675,0.
 00000950,-0.00008103,-0.00014574,0.00015053,0.00023277,-0.00662856,-0.
 08951416,0.01838435,0.00093154,-0.00465614,0.00078451,0.02595109,-0.00
 688986,-0.04157153,-0.00007948,0.00037075,-0.00006377,-0.00000571,-0.0
 0001127,0.00001655,-0.00042871,-0.00028704,0.00065438,0.00009810,0.000
 74780,-0.00014351,-0.00023716,0.00011684,-0.00177917,-0.02892692,-0.09
 486695,-0.00700883,-0.03481066,-0.00614278,-0.00819585,0.02059315,0.00
 502883,0.00578982,-0.02190321,0.65096767,0.00032613,-0.00081215,0.0002
 3628,0.00019691,-0.00010435,-0.00015932,-0.00057850,-0.00018146,0.0005
 6092,-0.00012681,0.00004300,0.00007726,-0.00023367,0.00034960,0.000294
 39,0.06309922,-0.00060916,-0.16922989,0.00040482,0.00249027,0.00495432
 ,0.01704368,-0.04309336,-0.02019926,-0.00009803,0.00032360,0.00018570,
 -0.00004554,-0.00004307,0.00008139,-0.00031602,0.00023491,0.00027372,0
 .00010995,0.00046872,-0.00053623,-0.00071222,0.01615553,-0.00771624,-0
 .04767790,-0.00872463,-0.08422306,-0.00971932,-0.00175206,-0.00113310,
 -0.02609259,-0.00573993,-0.00606907,0.04795249,-0.01156394,0.53096775,
 -0.00000443,-0.00009432,-0.00005311,0.00000614,0.00000575,-0.00001054,
 -0.00002208,-0.00001952,0.00007930,0.00000232,0.00000463,0.00001385,-0
 .00003527,0.00005118,0.00005232,0.00425507,-0.01195715,0.02359957,-0.0
 0057412,-0.00004820,-0.00006676,0.00206525,-0.00296308,-0.00003708,-0.
 00003257,0.00005885,-0.00001244,-0.00000588,-0.00000522,0.00000740,-0.
 00001569,-0.00002059,0.00006817,0.00007258,0.00010554,-0.00004533,-0.0
 0067103,0.00154089,0.00037820,-0.01313109,0.02105231,-0.02494775,0.001
 66377,0.00005104,0.00042320,-0.00596007,-0.00171761,-0.00056585,-0.088
 49474,0.06559784,-0.07211020,0.09551699,-0.00003171,0.00000245,0.00002
 638,0.00001451,-0.00001465,-0.00003373,0.00001347,0.00001818,-0.000018
 23,-0.00000610,0.00000332,-0.00000065,0.00000319,-0.00006001,0.0000033
 3,-0.00387408,0.00372931,-0.00252830,0.00042554,-0.00006601,0.00045832
 ,0.00046669,0.00115179,-0.00202317,-0.00006902,0.00001361,0.00007891,-
 0.00000127,-0.00000180,0.00000911,-0.00003137,0.00000635,0.00000599,0.
 00000055,-0.00000447,-0.00001764,0.00026590,-0.00204668,-0.00163106,-0
 .00448916,0.00606528,-0.00598681,0.00051860,0.00062971,-0.00049977,-0.
 00226310,0.00066459,-0.00073616,0.06411653,-0.16134225,0.12182383,-0.0
 6728016,0.16797529,-0.00003030,0.00013768,0.00011075,0.00002132,-0.000
 04280,-0.00001134,0.00004497,-0.00000480,-0.00012882,-0.00000072,-0.00
 000059,-0.00001525,0.00002291,-0.00013811,-0.00002834,0.00067192,0.011
 67254,-0.03326264,0.00045112,-0.00035728,0.00009220,-0.00116435,0.0093
 6207,-0.00059992,-0.00000306,-0.00006286,0.00010291,-0.00000332,0.0000
 0477,0.00000067,0.00003384,0.00014423,-0.00008121,-0.00010414,-0.00018
 362,0.00004948,-0.00108285,-0.00278692,0.00266163,-0.00404225,0.005035
 52,-0.00480452,0.00031140,0.00008298,0.00020401,-0.00055327,-0.0004674
 1,0.00003945,-0.06696346,0.11183888,-0.17229882,0.06917909,-0.12773541
 ,0.19688695,-0.00016730,-0.00017041,0.00022060,0.00000920,-0.00001614,
 -0.00002975,-0.00003313,0.00005900,0.00007053,-0.00001777,0.00000412,0
 .00003144,-0.00002032,0.00000801,0.00002524,-0.00313351,0.02432571,0.0
 1389462,-0.00031057,0.00092946,0.00002435,-0.00055581,-0.00143617,0.00
 350689,-0.00002974,-0.00001443,0.00004217,-0.00000717,-0.00000305,0.00
 001922,-0.00000622,0.00012116,-0.00005986,0.00004530,-0.00001547,0.000
 02396,0.00017362,0.00072839,-0.00000038,-0.00446966,-0.03408160,-0.009
 73952,-0.00624558,-0.00058142,-0.00085123,0.00160331,0.00077392,0.0001
 9857,-0.05267726,-0.03220114,-0.01406348,0.00236429,0.01128403,0.00352
 118,0.06096057,0.00005426,0.00008193,-0.00004564,-0.00002524,0.0000327
 3,0.00001983,0.00002574,0.00001864,-0.00003124,0.00000454,-0.00000433,
 -0.00001121,0.00003103,0.00000668,-0.00004214,0.00285311,0.00057119,-0
 .00196439,-0.00008208,-0.00011231,-0.00014315,-0.00144039,0.00036824,0
 .00103705,0.00003826,-0.00002833,-0.00003997,0.00000588,0.00000343,-0.
 00001683,0.00001659,-0.00005036,-0.00000696,-0.00000610,-0.00006387,-0
 .00001022,0.00077462,0.00031896,-0.00142382,0.00035313,-0.00669616,-0.
 00252948,-0.00096340,0.00142287,-0.00061647,-0.00045267,0.00083685,-0.
 00008536,-0.02459383,-0.29599024,-0.07301180,-0.00334454,-0.01625807,-
 0.00615436,0.02827023,0.31381808,0.00019046,0.00026745,-0.00023382,-0.
 00000008,-0.00000095,0.00003022,0.00003605,-0.00006921,-0.00012264,0.0
 0001876,-0.00000286,-0.00004132,0.00002814,-0.00005522,-0.00001524,0.0
 0802230,-0.03460160,-0.02036285,0.00069210,-0.00130151,0.00015317,0.00
 037482,0.00620969,-0.00515228,-0.00002581,0.00004436,-0.00001772,0.000
 01660,0.00000254,-0.00002161,-0.00001119,-0.00017977,-0.00000406,0.000
 04310,-0.00000147,-0.00004265,-0.00110495,-0.00084459,0.00269941,-0.00
 214537,-0.00943133,-0.00222187,-0.00119629,0.00006656,0.00017705,0.000
 33102,-0.00008770,0.00022206,-0.01143511,-0.06367280,-0.06811411,0.002
 73049,0.01932687,0.00946869,0.00338268,0.08288956,0.08254581,0.0000206
 9,-0.00047644,0.00014862,0.00006291,-0.00006308,-0.00009032,-0.0001794
 4,-0.00005822,0.00023096,-0.00005271,0.00001715,0.00004531,-0.00013395
 ,0.00010510,0.00019067,-0.01645700,0.00371606,0.00491456,-0.00002747,0
 .00091504,0.00078396,0.00186624,-0.00901322,-0.00209619,-0.00007184,0.
 00015780,0.00010694,-0.00003116,-0.00002304,0.00003340,-0.00001764,0.0
 0024105,-0.00001599,0.00007280,0.00016520,-0.00021666,-0.00029829,0.00
 315924,-0.00056791,-0.12220268,-0.00176995,0.08906233,-0.00109550,0.00
 351755,0.00497726,0.00502029,-0.00201414,0.00320870,-0.01897641,0.0074
 6672,0.04031694,0.00308629,0.00095697,-0.00014342,0.00341528,-0.000209
 87,0.00011624,0.16289119,-0.00000568,0.00004599,0.00004418,-0.00003623
 ,0.00003458,0.00002600,0.00000466,0.00006057,-0.00002190,-0.00000264,-
 0.00000561,-0.00000255,0.00003172,0.00002309,-0.00004815,-0.00202055,0
 .00335993,0.00060488,-0.00002854,0.00027089,-0.00016890,-0.00154867,-0
 .00255570,0.00130825,0.00003718,-0.00002435,-0.00005084,0.00001092,0.0
 0000298,-0.00001545,0.00001441,-0.00012890,0.00000285,-0.00000019,-0.0
 0001511,0.00000816,0.00175240,0.00094761,-0.00065191,0.02512818,-0.099
 12720,-0.03598281,0.02495345,-0.00229294,-0.03407623,-0.01235765,0.008
 25562,0.01105735,-0.00173989,0.00107145,0.00223713,-0.00095554,-0.0002
 7100,-0.00027706,0.00146416,0.00222645,0.00161046,-0.05134858,0.604342
 29,-0.00002938,0.00025844,0.00001505,-0.00006465,0.00004693,0.00002747
 ,0.00009002,0.00006326,-0.00011224,0.00001026,-0.00001400,-0.00002700,
 0.00007020,-0.00003913,-0.00010824,0.00329480,-0.00166251,0.00174393,0
 .00006866,-0.00013766,-0.00030593,-0.00210629,0.00315521,0.00131975,0.
 00007671,-0.00011309,-0.00004230,-0.00000814,0.00001185,-0.00002241,0.
 00002260,-0.00011779,0.00008303,-0.00014052,-0.00009853,0.00005652,0.0
 0098888,-0.00117757,0.00035189,0.09168530,0.00272627,-0.19628167,0.011
 11140,-0.00485644,-0.01386867,0.02568177,-0.00694874,-0.03387299,0.010
 04748,-0.00305200,-0.00853642,0.00153068,-0.00078110,0.00158939,-0.000
 89878,0.00207937,0.00057604,-0.16508301,0.10814651,0.28811351,0.000008
 98,0.00009183,-0.00003250,-0.00000932,0.00001449,0.00002451,0.00002613
 ,0.00000523,-0.00004902,0.00001069,-0.00000431,-0.00000860,0.00002559,
 -0.00001393,-0.00003746,0.00062685,-0.00208031,-0.00135866,0.00012328,
 -0.00018849,-0.00006940,-0.00031855,0.00152091,0.00024254,0.00001619,-
 0.00003564,-0.00003197,0.00000910,0.00000592,-0.00000299,-0.00001399,-
 0.00003675,0.00000933,-0.00001382,-0.00002497,0.00005216,-0.00007932,-
 0.00062559,-0.00004382,-0.00467000,0.02498988,0.00573128,-0.00151771,-
 0.00032994,0.00207411,0.00108997,-0.00113399,-0.00015566,-0.00007274,0
 .00394605,0.00232417,-0.00008570,-0.00002000,-0.00016660,-0.00089754,-
 0.00130928,-0.00006397,-0.01689158,0.01664705,0.02365200,0.02263350,0.
 00000102,-0.00005397,0.00000977,0.00001024,-0.00000904,-0.00000959,-0.
 00002009,-0.00001331,0.00002779,-0.00000387,0.00000193,0.00000496,-0.0
 0001542,0.00001300,0.00002242,-0.00141965,0.00039795,0.00062383,-0.000
 01615,0.00007639,0.00007113,0.00020126,-0.00081130,-0.00030284,-0.0000
 0769,0.00001483,0.00000755,-0.00000424,-0.00000161,0.00000693,-0.00000
 986,0.00003928,0.00000027,0.00001263,0.00002348,-0.00001802,-0.0000320
 9,0.00025893,0.00003666,-0.00297575,-0.00622672,0.00222540,0.00074503,
 0.00255754,-0.00113909,-0.00122139,0.00171407,0.00142067,0.00112600,0.
 00155149,0.00150932,-0.00006211,-0.00019495,-0.00006746,0.00055164,-0.
 00050239,-0.00016848,0.04455866,-0.51622063,-0.09748927,-0.04141817,0.
 51738501,-0.00000347,-0.00002437,0.00000339,0.00000598,0.00000075,0.00
 000111,-0.00001041,0.00000371,0.00001082,0.00000039,0.00000225,0.00000
 404,-0.00000645,0.00000550,0.00000743,-0.00074558,0.00058675,0.0001497
 1,-0.00003900,0.00005975,0.00001691,0.00001126,-0.00077804,0.00001929,
 -0.00001057,0.00001891,0.00000033,0.00000816,-0.00000173,0.00000073,-0
 .00000350,-0.00001882,-0.00002007,0.00003545,0.00001160,-0.00000417,0.
 00020208,0.00031043,-0.00007409,0.00496526,-0.03980360,-0.01199483,0.0
 0419244,-0.00009621,-0.00529288,-0.00124377,-0.00054314,0.00069311,0.0
 0018521,0.00042166,0.00058379,-0.00021322,0.00025929,0.00002471,0.0006
 8155,0.00010724,0.00047774,0.02407761,-0.05374997,-0.04069871,-0.03208
 943,0.09322803,0.05609164\\0.00001105,-0.00000968,-0.00001852,-0.00000
 340,-0.00000082,0.00000372,-0.00001275,-0.00000748,0.00001986,0.000000
 52,-0.00000133,-0.00000322,-0.00000154,0.00002090,-0.00000204,-0.00000
 632,0.00001832,-0.00000272,-0.00000268,0.00002487,-0.00000134,0.000006
 36,-0.00003374,0.00000544,0.00001090,-0.00001473,-0.00001612,-0.000000
 53,0.00000299,0.00000084,-0.00000852,-0.00001245,0.00001777,0.00000049
 ,0.00000247,-0.00000103,0.00000109,0.00001037,-0.00000600,0.00000773,-
 0.00000041,-0.00001178,0.00000083,-0.00000293,0.00000007,0.00000126,0.
 00000340,-0.00000064,0.00000127,-0.00000402,-0.00000044,-0.00000013,-0
 .00000310,-0.00000087,0.00000143,0.00000518,0.00000181,-0.00000789,-0.
 00000345,0.00001559,0.00000084,0.00000564,-0.00000037\\\@


 The lyf so short, the craft so long to lerne.
                             -- Chaucer
 Job cpu time:       0 days  4 hours 41 minutes 15.8 seconds.
 Elapsed time:       0 days  0 hours  7 minutes 49.7 seconds.
 File lengths (MBytes):  RWF=    599 Int=      0 D2E=      0 Chk=     21 Scr=      1
 Normal termination of Gaussian 16 at Fri Jun 28 18:09:09 2019.
0600,0.00000773,-0
 .00000041,-0.00001178,0.00000083,-0.00000293,0.00000007,0.00000126,0.0
 0000340,-0.00000064,0.00000127,-0.00000402,-0.00000044,-0.00000013,-0.
 00000310,-0.00000087,0.00000143,0.00000518,0.00000181,-0.00000789,-0.0
 0000345,0.00001559,0.00000084,0.00000564,-0.00000037\\\@


 CONTRAIWISE...CONTINUED TWEEDLEDEE, IF IT WAS SO, IT MIGHT BE,
 AND IF IT WERE SO, IT WOULD BE.....
 BUT AS IT ISN'T, IT AIN'T....
 THAT'S LOGIC.....
 ALICE THROUGH THE LOOKING GLASS
 Job cpu time:       0 days  4 hours 44 minutes 35.6 seconds.
 Elapsed time:       0 days  0 hours  7 minutes 55.1 seconds.
 File lengths (MBytes):  RWF=    599 Int=      0 D2E=      0 Chk=     21 Scr=      1
 Normal termination of Gaussian 16 at Fri Jun 28 18:04:06 2019.
