 Entering Gaussian System, Link 0=g16
 Initial command:
 /nopt/nrel/apps/gaussian/g16B/g16/l1.exe "/dev/shm/Gau-4598.inp" -scrdir="/dev/shm/"
 Default linda workers: r1i5n15
 Default is to use  36 SMP processors on each worker.
 Entering Link 1 = /nopt/nrel/apps/gaussian/g16B/g16/l1.exe PID=      4600.
  
 Copyright (c) 1988-2017, Gaussian, Inc.  All Rights Reserved.
  
 This is part of the Gaussian(R) 16 program.  It is based on
 the Gaussian(R) 09 system (copyright 2009, Gaussian, Inc.),
 the Gaussian(R) 03 system (copyright 2003, Gaussian, Inc.),
 the Gaussian(R) 98 system (copyright 1998, Gaussian, Inc.),
 the Gaussian(R) 94 system (copyright 1995, Gaussian, Inc.),
 the Gaussian 92(TM) system (copyright 1992, Gaussian, Inc.),
 the Gaussian 90(TM) system (copyright 1990, Gaussian, Inc.),
 the Gaussian 88(TM) system (copyright 1988, Gaussian, Inc.),
 the Gaussian 86(TM) system (copyright 1986, Carnegie Mellon
 University), and the Gaussian 82(TM) system (copyright 1983,
 Carnegie Mellon University). Gaussian is a federally registered
 trademark of Gaussian, Inc.
  
 This software contains proprietary and confidential information,
 including trade secrets, belonging to Gaussian, Inc.
  
 This software is provided under written license and may be
 used, copied, transmitted, or stored only in accord with that
 written license.
  
 The following legend is applicable only to US Government
 contracts under FAR:
  
                    RESTRICTED RIGHTS LEGEND
  
 Use, reproduction and disclosure by the US Government is
 subject to restrictions as set forth in subparagraphs (a)
 and (c) of the Commercial Computer Software - Restricted
 Rights clause in FAR 52.227-19.
  
 Gaussian, Inc.
 340 Quinnipiac St., Bldg. 40, Wallingford CT 06492
  
  
 ---------------------------------------------------------------
 Warning -- This program may not be used in any manner that
 competes with the business of Gaussian, Inc. or will provide
 assistance to any competitor of Gaussian, Inc.  The licensee
 of this program is prohibited from giving any competitor of
 Gaussian, Inc. access to this program.  By using this program,
 the user acknowledges that Gaussian, Inc. is engaged in the
 business of creating and licensing software in the field of
 computational chemistry and represents and warrants to the
 licensee that it is not a competitor of Gaussian, Inc. and that
 it will not use this program in any manner prohibited above.
 ---------------------------------------------------------------
  

 Cite this work as:
 Gaussian 16, Revision B.01,
 M. J. Frisch, G. W. Trucks, H. B. Schlegel, G. E. Scuseria, 
 M. A. Robb, J. R. Cheeseman, G. Scalmani, V. Barone, 
 G. A. Petersson, H. Nakatsuji, X. Li, M. Caricato, A. V. Marenich, 
 J. Bloino, B. G. Janesko, R. Gomperts, B. Mennucci, H. P. Hratchian, 
 J. V. Ortiz, A. F. Izmaylov, J. L. Sonnenberg, D. Williams-Young, 
 F. Ding, F. Lipparini, F. Egidi, J. Goings, B. Peng, A. Petrone, 
 T. Henderson, D. Ranasinghe, V. G. Zakrzewski, J. Gao, N. Rega, 
 G. Zheng, W. Liang, M. Hada, M. Ehara, K. Toyota, R. Fukuda, 
 J. Hasegawa, M. Ishida, T. Nakajima, Y. Honda, O. Kitao, H. Nakai, 
 T. Vreven, K. Throssell, J. A. Montgomery, Jr., J. E. Peralta, 
 F. Ogliaro, M. J. Bearpark, J. J. Heyd, E. N. Brothers, K. N. Kudin, 
 V. N. Staroverov, T. A. Keith, R. Kobayashi, J. Normand, 
 K. Raghavachari, A. P. Rendell, J. C. Burant, S. S. Iyengar, 
 J. Tomasi, M. Cossi, J. M. Millam, M. Klene, C. Adamo, R. Cammi, 
 J. W. Ochterski, R. L. Martin, K. Morokuma, O. Farkas,
 J. B. Foresman, and D. J. Fox, Gaussian, Inc., Wallingford CT, 2016.
 
 ******************************************
 Gaussian 16:  ES64L-G16RevB.01 20-Dec-2017
                21-Jun-2019 
 ******************************************
 %RWF=/dev/shm/,5GB,/tmp/scratch/877250/,-1
 %NoSave
 %OldChk=pet_opt.chk
 %Chk=/dev/shm/pet_freq.chk
 SetLPE:    new flags="-opt 'Tsnet.Node.lindarsharg: ssh'  -nodelist 'r1i5n15.ib0.cm.hpc.nrel.gov' -env GAUSS_MDEF=9663676416 -env GAUSS_EXEDIR="/nopt/nrel/apps/gaussian/g16B/g16/bsd:/nopt/nrel/apps/gaussian/g16B/g16/local:/nopt/nrel/apps/gaussian/g16B/g16/extras:/nopt/nrel/apps/gaussian/g16B/g16""
 Will use up to    1 processors via Linda.
 Copying data from "pet_opt.chk" to current chk file "/dev/shm/pet_freq.chk"
 IOpt=  2 FromEx=T IUOpen= 4 IOptOp= 5 NList=   0 IFRang= 0 IUIn= 4 IUOut= 2.
 Default route: CacheSize=180224 MaxDisk=256GB
 ----------------------------------------------------------------------
 # geom=allcheck guess=read m062x/6-311+g(2d,p) nosymm scf=xqc opt freq
 =NoRaman
 ----------------------------------------------------------------------
 1/4=180224,18=20,19=15,26=3,29=7,38=1/1,3;
 2/4=180224,9=110,12=2,15=1,40=1/2;
 3/4=180224,5=4,6=6,7=112,11=2,14=-4,25=1,30=1,71=1,74=-55,116=-2/1,2,3;
 4/4=180224,5=1/1;
 5/4=180224,5=2,8=3,13=1,38=6/2,8;
 6/4=180224,7=2,8=2,9=2,10=2,28=1/1;
 7/4=180224,30=1/1,2,3,16;
 1/4=180224,18=20,19=15,26=3/3(2);
 2/4=180224,9=110,15=1/2;
 99/4=180224/99;
 2/4=180224,9=110,15=1/2;
 3/4=180224,5=4,6=6,7=112,11=2,14=-2,25=1,30=1,71=1,74=-55/1,2,3;
 4/4=180224,5=5,16=3,69=1/1;
 5/4=180224,5=2,8=3,13=1,38=5/2,8;
 7/4=180224,30=1/1,2,3,16;
 1/4=180224,18=20,19=15,26=3/3(-5);
 2/4=180224,9=110,15=1/2;
 6/4=180224,7=2,8=2,9=2,10=2,19=2,28=1/1;
 99/4=180224,9=1/99;
 Structure from the checkpoint file:  "/dev/shm/pet_freq.chk"
 ---------------------------------------------------
 pet trimer from Brandon, opt with m062x/6-31+g(d,p)
 ---------------------------------------------------
 Charge =  0 Multiplicity = 1
 Redundant internal coordinates found in file.  (old form).
 O,0,3.3118657104,6.3875760091,-1.443035388
 H,0,4.232640143,6.1640801267,-1.2810753543
 C,0,-0.3736580066,2.4592584967,4.9780987112
 H,0,-0.594758433,1.5302224395,5.4848797797
 C,0,0.3796942155,2.4650346565,3.8164683801
 H,0,0.7628588225,1.5469661095,3.3907532181
 O,0,1.9029158227,2.5986327459,1.44705476
 C,0,2.4530504465,4.8348899083,0.1866630199
 H,0,1.9477689196,4.2494491761,-0.582257249
 H,0,3.4270429688,4.3776508097,0.377746245
 C,0,2.5898229208,6.2844724865,-0.234558094
 H,0,1.6029208813,6.7060071721,-0.4251145576
 H,0,3.0546818445,6.8648951893,0.5687466044
 C,0,0.6564973161,3.6676584345,3.1739675175
 C,0,1.4732486375,3.6130801839,1.9259572396
 O,0,-1.8753882005,2.5034275741,7.2791922982
 C,0,-0.8495959475,3.6612837805,5.4957943161
 C,0,-1.664466345,3.7169687929,6.7430956523
 O,0,1.6817839106,4.8243818755,1.3909074481
 C,0,0.1798055056,4.8694270104,3.6913525056
 H,0,0.4003381832,5.7978132911,3.1831870443
 C,0,-0.5731800426,4.8640866067,4.8531392751
 H,0,-0.9566022728,5.7822698537,5.2783934635
 O,0,-2.0921113985,4.7290252494,7.2277943854
 C,0,-5.5958530546,-1.3141032203,13.6791718325
 H,0,-5.8237740809,-2.2435674662,14.1820971625
 C,0,-4.8456169828,-1.3093251068,12.5156159886
 H,0,-4.4716528432,-2.228742357,12.084682905
 O,0,-3.3255416691,-1.1753936661,10.1422991086
 C,0,-2.7607543695,1.0536873344,8.8950720143
 H,0,-1.7791890376,0.6184938392,9.0867145601
 H,0,-3.2595612596,0.4552709502,8.1317893429
 C,0,-4.560198175,-0.1057225434,11.8785044371
 C,0,-3.748158845,-0.1622819859,10.628911099
 C,0,-2.6507455753,2.5008247351,8.4773472198
 H,0,-2.1534992147,3.0994236366,9.2415698285
 H,0,-3.6322497443,2.9355496554,8.2843396424
 O,0,-7.0891490858,-1.2677567237,15.9853629994
 C,0,-6.0597217875,-0.1104503378,14.203911412
 C,0,-6.8712885241,-0.0538529432,15.453810751
 O,0,-3.5342297286,1.0511980311,10.0948005258
 C,0,-5.0242555631,1.0979112602,12.4031216349
 H,0,-4.7965837292,2.0273490156,11.9000337244
 C,0,-5.7742397444,1.0931593707,13.5668407498
 H,0,-6.1480555361,2.0125916768,13.9978707452
 O,0,-7.2904292934,0.9596163128,15.942681662
 C,0,-10.8251643123,-5.0889581172,22.3742308266
 H,0,-11.0581557056,-6.0187312852,22.874238618
 C,0,-10.0740769364,-5.083682125,21.2112196803
 H,0,-9.7038536305,-6.0032286139,20.7773105274
 O,0,-8.552124112,-4.9479920862,18.8385545533
 C,0,-7.9793417859,-2.7181688843,17.5983986304
 H,0,-8.4815233489,-3.3114315531,16.8332623
 H,0,-6.9998085076,-3.1589305117,17.7877852226
 C,0,-9.7831904764,-3.8792309528,20.578085236
 C,0,-8.9711832614,-3.9350739129,19.3289231811
 C,0,-7.8622576013,-1.2702513148,17.1853283299
 H,0,-8.8416736704,-0.8294953655,16.9955054788
 H,0,-7.3601229206,-0.6768348657,17.9503567648
 O,0,-12.3133977731,-5.0428434934,24.6834565123
 C,0,-11.2846730495,-3.8854133107,22.9028832463
 C,0,-12.0979438004,-3.8306632093,24.1531622231
 O,0,-8.7520554306,-2.7205930094,18.7982614092
 C,0,-10.2430165156,-2.6755460186,21.1063514357
 H,0,-10.0115719891,-1.7453498273,20.6063573264
 C,0,-10.994022362,-2.6812070395,22.2695021754
 H,0,-11.3651620891,-1.7618970279,22.7031132824
 O,0,-12.516171704,-2.8150522494,24.6396723647
 C,0,-13.0959415267,-5.0550232106,25.8803811892
 H,0,-12.6101258866,-4.4325908958,26.6358412413
 H,0,-14.0841387825,-4.6388725716,25.6812898561
 C,0,-13.1936892234,-6.5003777801,26.3262804308
 H,0,-12.1912433157,-6.9136148301,26.4767821733
 H,0,-13.6872371238,-7.0902232763,25.5539783877
 O,0,-13.9880665215,-6.6124509467,27.4876616518
 H,0,-13.5154643953,-6.2297191611,28.2321051777
 Recover connectivity data from disk.

 GradGradGradGradGradGradGradGradGradGradGradGradGradGradGradGradGradGrad
 Berny optimization.
 Initialization pass.
                           ----------------------------
                           !    Initial Parameters    !
                           ! (Angstroms and Degrees)  !
 --------------------------                            --------------------------
 ! Name  Definition              Value          Derivative Info.                !
 --------------------------------------------------------------------------------
 ! R1    R(1,2)                  0.9613         estimate D2E/DX2                !
 ! R2    R(1,11)                 1.4115         estimate D2E/DX2                !
 ! R3    R(3,4)                  1.0811         estimate D2E/DX2                !
 ! R4    R(3,5)                  1.3845         estimate D2E/DX2                !
 ! R5    R(3,17)                 1.3926         estimate D2E/DX2                !
 ! R6    R(5,6)                  1.0821         estimate D2E/DX2                !
 ! R7    R(5,14)                 1.3913         estimate D2E/DX2                !
 ! R8    R(7,15)                 1.2013         estimate D2E/DX2                !
 ! R9    R(8,9)                  1.0905         estimate D2E/DX2                !
 ! R10   R(8,10)                 1.0928         estimate D2E/DX2                !
 ! R11   R(8,11)                 1.5157         estimate D2E/DX2                !
 ! R12   R(8,19)                 1.4301         estimate D2E/DX2                !
 ! R13   R(11,12)                1.0899         estimate D2E/DX2                !
 ! R14   R(11,13)                1.0947         estimate D2E/DX2                !
 ! R15   R(14,15)                1.4925         estimate D2E/DX2                !
 ! R16   R(14,20)                1.3925         estimate D2E/DX2                !
 ! R17   R(15,19)                1.3405         estimate D2E/DX2                !
 ! R18   R(16,18)                1.3433         estimate D2E/DX2                !
 ! R19   R(16,35)                1.4272         estimate D2E/DX2                !
 ! R20   R(17,18)                1.4909         estimate D2E/DX2                !
 ! R21   R(17,22)                1.3915         estimate D2E/DX2                !
 ! R22   R(18,24)                1.2009         estimate D2E/DX2                !
 ! R23   R(20,21)                1.0811         estimate D2E/DX2                !
 ! R24   R(20,22)                1.3845         estimate D2E/DX2                !
 ! R25   R(22,23)                1.0821         estimate D2E/DX2                !
 ! R26   R(25,26)                1.0811         estimate D2E/DX2                !
 ! R27   R(25,27)                1.3845         estimate D2E/DX2                !
 ! R28   R(25,39)                1.3926         estimate D2E/DX2                !
 ! R29   R(27,28)                1.0821         estimate D2E/DX2                !
 ! R30   R(27,33)                1.3914         estimate D2E/DX2                !
 ! R31   R(29,34)                1.2007         estimate D2E/DX2                !
 ! R32   R(30,31)                1.0907         estimate D2E/DX2                !
 ! R33   R(30,32)                1.0906         estimate D2E/DX2                !
 ! R34   R(30,35)                1.5102         estimate D2E/DX2                !
 ! R35   R(30,41)                1.4275         estimate D2E/DX2                !
 ! R36   R(33,34)                1.4913         estimate D2E/DX2                !
 ! R37   R(33,42)                1.3926         estimate D2E/DX2                !
 ! R38   R(34,41)                1.343          estimate D2E/DX2                !
 ! R39   R(35,36)                1.0907         estimate D2E/DX2                !
 ! R40   R(35,37)                1.0907         estimate D2E/DX2                !
 ! R41   R(38,40)                1.343          estimate D2E/DX2                !
 ! R42   R(38,57)                1.4275         estimate D2E/DX2                !
 ! R43   R(39,40)                1.4913         estimate D2E/DX2                !
 ! R44   R(39,44)                1.3914         estimate D2E/DX2                !
 ! R45   R(40,46)                1.2007         estimate D2E/DX2                !
 ! R46   R(42,43)                1.0811         estimate D2E/DX2                !
 ! R47   R(42,44)                1.3845         estimate D2E/DX2                !
 ! R48   R(44,45)                1.0821         estimate D2E/DX2                !
 ! R49   R(47,48)                1.0811         estimate D2E/DX2                !
 ! R50   R(47,49)                1.3845         estimate D2E/DX2                !
 ! R51   R(47,61)                1.3925         estimate D2E/DX2                !
 ! R52   R(49,50)                1.0821         estimate D2E/DX2                !
 ! R53   R(49,55)                1.3915         estimate D2E/DX2                !
 ! R54   R(51,56)                1.2009         estimate D2E/DX2                !
 ! R55   R(52,53)                1.0907         estimate D2E/DX2                !
 ! R56   R(52,54)                1.0907         estimate D2E/DX2                !
 ! R57   R(52,57)                1.5102         estimate D2E/DX2                !
 ! R58   R(52,63)                1.4272         estimate D2E/DX2                !
 ! R59   R(55,56)                1.4909         estimate D2E/DX2                !
 ! R60   R(55,64)                1.3926         estimate D2E/DX2                !
 ! R61   R(56,63)                1.3433         estimate D2E/DX2                !
 ! R62   R(57,58)                1.0907         estimate D2E/DX2                !
 ! R63   R(57,59)                1.0907         estimate D2E/DX2                !
 ! R64   R(60,62)                1.3405         estimate D2E/DX2                !
 ! R65   R(60,69)                1.4301         estimate D2E/DX2                !
 ! R66   R(61,62)                1.4925         estimate D2E/DX2                !
 ! R67   R(61,66)                1.3913         estimate D2E/DX2                !
 ! R68   R(62,68)                1.2013         estimate D2E/DX2                !
 ! R69   R(64,65)                1.0811         estimate D2E/DX2                !
 ! R70   R(64,66)                1.3845         estimate D2E/DX2                !
 ! R71   R(66,67)                1.0821         estimate D2E/DX2                !
 ! R72   R(69,70)                1.0928         estimate D2E/DX2                !
 ! R73   R(69,71)                1.0906         estimate D2E/DX2                !
 ! R74   R(69,72)                1.5157         estimate D2E/DX2                !
 ! R75   R(72,73)                1.0947         estimate D2E/DX2                !
 ! R76   R(72,74)                1.0899         estimate D2E/DX2                !
 ! R77   R(72,75)                1.4115         estimate D2E/DX2                !
 ! R78   R(75,76)                0.9613         estimate D2E/DX2                !
 ! A1    A(2,1,11)             109.1935         estimate D2E/DX2                !
 ! A2    A(4,3,5)              120.5406         estimate D2E/DX2                !
 ! A3    A(4,3,17)             119.8394         estimate D2E/DX2                !
 ! A4    A(5,3,17)             119.6201         estimate D2E/DX2                !
 ! A5    A(3,5,6)              121.2795         estimate D2E/DX2                !
 ! A6    A(3,5,14)             119.9541         estimate D2E/DX2                !
 ! A7    A(6,5,14)             118.7664         estimate D2E/DX2                !
 ! A8    A(9,8,10)             108.1571         estimate D2E/DX2                !
 ! A9    A(9,8,11)             111.0556         estimate D2E/DX2                !
 ! A10   A(9,8,19)             109.8711         estimate D2E/DX2                !
 ! A11   A(10,8,11)            111.6117         estimate D2E/DX2                !
 ! A12   A(10,8,19)            109.2905         estimate D2E/DX2                !
 ! A13   A(11,8,19)            106.8403         estimate D2E/DX2                !
 ! A14   A(1,11,8)             110.7285         estimate D2E/DX2                !
 ! A15   A(1,11,12)            106.5734         estimate D2E/DX2                !
 ! A16   A(1,11,13)            111.8587         estimate D2E/DX2                !
 ! A17   A(8,11,12)            109.6792         estimate D2E/DX2                !
 ! A18   A(8,11,13)            109.9669         estimate D2E/DX2                !
 ! A19   A(12,11,13)           107.9234         estimate D2E/DX2                !
 ! A20   A(5,14,15)            117.6074         estimate D2E/DX2                !
 ! A21   A(5,14,20)            120.4168         estimate D2E/DX2                !
 ! A22   A(15,14,20)           121.9758         estimate D2E/DX2                !
 ! A23   A(7,15,14)            124.0534         estimate D2E/DX2                !
 ! A24   A(7,15,19)            123.251          estimate D2E/DX2                !
 ! A25   A(14,15,19)           112.6955         estimate D2E/DX2                !
 ! A26   A(18,16,35)           114.9605         estimate D2E/DX2                !
 ! A27   A(3,17,18)            122.0069         estimate D2E/DX2                !
 ! A28   A(3,17,22)            120.4332         estimate D2E/DX2                !
 ! A29   A(18,17,22)           117.5599         estimate D2E/DX2                !
 ! A30   A(16,18,17)           112.7021         estimate D2E/DX2                !
 ! A31   A(16,18,24)           122.9802         estimate D2E/DX2                !
 ! A32   A(17,18,24)           124.3177         estimate D2E/DX2                !
 ! A33   A(8,19,15)            115.2542         estimate D2E/DX2                !
 ! A34   A(14,20,21)           119.7773         estimate D2E/DX2                !
 ! A35   A(14,20,22)           119.6454         estimate D2E/DX2                !
 ! A36   A(21,20,22)           120.5773         estimate D2E/DX2                !
 ! A37   A(17,22,20)           119.9304         estimate D2E/DX2                !
 ! A38   A(17,22,23)           118.7893         estimate D2E/DX2                !
 ! A39   A(20,22,23)           121.2803         estimate D2E/DX2                !
 ! A40   A(26,25,27)           120.5427         estimate D2E/DX2                !
 ! A41   A(26,25,39)           119.84           estimate D2E/DX2                !
 ! A42   A(27,25,39)           119.6174         estimate D2E/DX2                !
 ! A43   A(25,27,28)           121.2685         estimate D2E/DX2                !
 ! A44   A(25,27,33)           119.9319         estimate D2E/DX2                !
 ! A45   A(28,27,33)           118.7996         estimate D2E/DX2                !
 ! A46   A(31,30,32)           108.3991         estimate D2E/DX2                !
 ! A47   A(31,30,35)           111.4313         estimate D2E/DX2                !
 ! A48   A(31,30,41)           109.8326         estimate D2E/DX2                !
 ! A49   A(32,30,35)           111.4382         estimate D2E/DX2                !
 ! A50   A(32,30,41)           109.8417         estimate D2E/DX2                !
 ! A51   A(35,30,41)           105.8793         estimate D2E/DX2                !
 ! A52   A(27,33,34)           117.5519         estimate D2E/DX2                !
 ! A53   A(27,33,42)           120.4508         estimate D2E/DX2                !
 ! A54   A(34,33,42)           121.9974         estimate D2E/DX2                !
 ! A55   A(29,34,33)           124.278          estimate D2E/DX2                !
 ! A56   A(29,34,41)           123.0342         estimate D2E/DX2                !
 ! A57   A(33,34,41)           112.6877         estimate D2E/DX2                !
 ! A58   A(16,35,30)           105.8748         estimate D2E/DX2                !
 ! A59   A(16,35,36)           109.8501         estimate D2E/DX2                !
 ! A60   A(16,35,37)           109.8533         estimate D2E/DX2                !
 ! A61   A(30,35,36)           111.426          estimate D2E/DX2                !
 ! A62   A(30,35,37)           111.4276         estimate D2E/DX2                !
 ! A63   A(36,35,37)           108.3913         estimate D2E/DX2                !
 ! A64   A(40,38,57)           114.9714         estimate D2E/DX2                !
 ! A65   A(25,39,40)           121.997          estimate D2E/DX2                !
 ! A66   A(25,39,44)           120.4507         estimate D2E/DX2                !
 ! A67   A(40,39,44)           117.5523         estimate D2E/DX2                !
 ! A68   A(38,40,39)           112.6872         estimate D2E/DX2                !
 ! A69   A(38,40,46)           123.0344         estimate D2E/DX2                !
 ! A70   A(39,40,46)           124.2784         estimate D2E/DX2                !
 ! A71   A(30,41,34)           114.9705         estimate D2E/DX2                !
 ! A72   A(33,42,43)           119.8399         estimate D2E/DX2                !
 ! A73   A(33,42,44)           119.6174         estimate D2E/DX2                !
 ! A74   A(43,42,44)           120.5427         estimate D2E/DX2                !
 ! A75   A(39,44,42)           119.9319         estimate D2E/DX2                !
 ! A76   A(39,44,45)           118.7995         estimate D2E/DX2                !
 ! A77   A(42,44,45)           121.2686         estimate D2E/DX2                !
 ! A78   A(48,47,49)           120.5783         estimate D2E/DX2                !
 ! A79   A(48,47,61)           119.7762         estimate D2E/DX2                !
 ! A80   A(49,47,61)           119.6455         estimate D2E/DX2                !
 ! A81   A(47,49,50)           121.2804         estimate D2E/DX2                !
 ! A82   A(47,49,55)           119.9299         estimate D2E/DX2                !
 ! A83   A(50,49,55)           118.7898         estimate D2E/DX2                !
 ! A84   A(53,52,54)           108.3912         estimate D2E/DX2                !
 ! A85   A(53,52,57)           111.4269         estimate D2E/DX2                !
 ! A86   A(53,52,63)           109.8513         estimate D2E/DX2                !
 ! A87   A(54,52,57)           111.4262         estimate D2E/DX2                !
 ! A88   A(54,52,63)           109.8515         estimate D2E/DX2                !
 ! A89   A(57,52,63)           105.8762         estimate D2E/DX2                !
 ! A90   A(49,55,56)           117.559          estimate D2E/DX2                !
 ! A91   A(49,55,64)           120.4337         estimate D2E/DX2                !
 ! A92   A(56,55,64)           122.0073         estimate D2E/DX2                !
 ! A93   A(51,56,55)           124.3175         estimate D2E/DX2                !
 ! A94   A(51,56,63)           122.9798         estimate D2E/DX2                !
 ! A95   A(55,56,63)           112.7027         estimate D2E/DX2                !
 ! A96   A(38,57,52)           105.878          estimate D2E/DX2                !
 ! A97   A(38,57,58)           109.8368         estimate D2E/DX2                !
 ! A98   A(38,57,59)           109.8372         estimate D2E/DX2                !
 ! A99   A(52,57,58)           111.4338         estimate D2E/DX2                !
 ! A100  A(52,57,59)           111.437          estimate D2E/DX2                !
 ! A101  A(58,57,59)           108.3993         estimate D2E/DX2                !
 ! A102  A(62,60,69)           115.2608         estimate D2E/DX2                !
 ! A103  A(47,61,62)           121.9737         estimate D2E/DX2                !
 ! A104  A(47,61,66)           120.4173         estimate D2E/DX2                !
 ! A105  A(62,61,66)           117.6089         estimate D2E/DX2                !
 ! A106  A(60,62,61)           112.6927         estimate D2E/DX2                !
 ! A107  A(60,62,68)           123.2525         estimate D2E/DX2                !
 ! A108  A(61,62,68)           124.0547         estimate D2E/DX2                !
 ! A109  A(52,63,56)           114.9592         estimate D2E/DX2                !
 ! A110  A(55,64,65)           119.8383         estimate D2E/DX2                !
 ! A111  A(55,64,66)           119.6201         estimate D2E/DX2                !
 ! A112  A(65,64,66)           120.5416         estimate D2E/DX2                !
 ! A113  A(61,66,64)           119.9535         estimate D2E/DX2                !
 ! A114  A(61,66,67)           118.7669         estimate D2E/DX2                !
 ! A115  A(64,66,67)           121.2796         estimate D2E/DX2                !
 ! A116  A(60,69,70)           109.2984         estimate D2E/DX2                !
 ! A117  A(60,69,71)           109.8641         estimate D2E/DX2                !
 ! A118  A(60,69,72)           106.8357         estimate D2E/DX2                !
 ! A119  A(70,69,71)           108.1613         estimate D2E/DX2                !
 ! A120  A(70,69,72)           111.6194         estimate D2E/DX2                !
 ! A121  A(71,69,72)           111.0475         estimate D2E/DX2                !
 ! A122  A(69,72,73)           109.9598         estimate D2E/DX2                !
 ! A123  A(69,72,74)           109.6821         estimate D2E/DX2                !
 ! A124  A(69,72,75)           110.7354         estimate D2E/DX2                !
 ! A125  A(73,72,74)           107.9266         estimate D2E/DX2                !
 ! A126  A(73,72,75)           111.8557         estimate D2E/DX2                !
 ! A127  A(74,72,75)           106.5707         estimate D2E/DX2                !
 ! A128  A(72,75,76)           109.2018         estimate D2E/DX2                !
 ! D1    D(2,1,11,8)           -70.2064         estimate D2E/DX2                !
 ! D2    D(2,1,11,12)          170.5651         estimate D2E/DX2                !
 ! D3    D(2,1,11,13)           52.8326         estimate D2E/DX2                !
 ! D4    D(4,3,5,6)             -0.0128         estimate D2E/DX2                !
 ! D5    D(4,3,5,14)           179.9749         estimate D2E/DX2                !
 ! D6    D(17,3,5,6)          -179.999          estimate D2E/DX2                !
 ! D7    D(17,3,5,14)           -0.0112         estimate D2E/DX2                !
 ! D8    D(4,3,17,18)            0.0609         estimate D2E/DX2                !
 ! D9    D(4,3,17,22)         -179.9564         estimate D2E/DX2                !
 ! D10   D(5,3,17,18)         -179.9529         estimate D2E/DX2                !
 ! D11   D(5,3,17,22)            0.0299         estimate D2E/DX2                !
 ! D12   D(3,5,14,15)          179.9895         estimate D2E/DX2                !
 ! D13   D(3,5,14,20)           -0.0279         estimate D2E/DX2                !
 ! D14   D(6,5,14,15)           -0.0225         estimate D2E/DX2                !
 ! D15   D(6,5,14,20)          179.9601         estimate D2E/DX2                !
 ! D16   D(9,8,11,1)           -58.6118         estimate D2E/DX2                !
 ! D17   D(9,8,11,12)           58.7268         estimate D2E/DX2                !
 ! D18   D(9,8,11,13)          177.2604         estimate D2E/DX2                !
 ! D19   D(10,8,11,1)           62.1641         estimate D2E/DX2                !
 ! D20   D(10,8,11,12)         179.5028         estimate D2E/DX2                !
 ! D21   D(10,8,11,13)         -61.9636         estimate D2E/DX2                !
 ! D22   D(19,8,11,1)         -178.4182         estimate D2E/DX2                !
 ! D23   D(19,8,11,12)         -61.0795         estimate D2E/DX2                !
 ! D24   D(19,8,11,13)          57.4541         estimate D2E/DX2                !
 ! D25   D(9,8,19,15)           60.352          estimate D2E/DX2                !
 ! D26   D(10,8,19,15)         -58.1745         estimate D2E/DX2                !
 ! D27   D(11,8,19,15)        -179.0818         estimate D2E/DX2                !
 ! D28   D(5,14,15,7)           -0.0129         estimate D2E/DX2                !
 ! D29   D(5,14,15,19)        -179.9027         estimate D2E/DX2                !
 ! D30   D(20,14,15,7)        -179.9952         estimate D2E/DX2                !
 ! D31   D(20,14,15,19)          0.1151         estimate D2E/DX2                !
 ! D32   D(5,14,20,21)        -179.9459         estimate D2E/DX2                !
 ! D33   D(5,14,20,22)           0.0485         estimate D2E/DX2                !
 ! D34   D(15,14,20,21)          0.0359         estimate D2E/DX2                !
 ! D35   D(15,14,20,22)       -179.9697         estimate D2E/DX2                !
 ! D36   D(7,15,19,8)            0.4641         estimate D2E/DX2                !
 ! D37   D(14,15,19,8)        -179.6451         estimate D2E/DX2                !
 ! D38   D(35,16,18,17)        179.9597         estimate D2E/DX2                !
 ! D39   D(35,16,18,24)         -0.016          estimate D2E/DX2                !
 ! D40   D(18,16,35,30)        179.9367         estimate D2E/DX2                !
 ! D41   D(18,16,35,36)        -59.6363         estimate D2E/DX2                !
 ! D42   D(18,16,35,37)         59.5061         estimate D2E/DX2                !
 ! D43   D(3,17,18,16)          -0.2028         estimate D2E/DX2                !
 ! D44   D(3,17,18,24)         179.7725         estimate D2E/DX2                !
 ! D45   D(22,17,18,16)        179.814          estimate D2E/DX2                !
 ! D46   D(22,17,18,24)         -0.2108         estimate D2E/DX2                !
 ! D47   D(3,17,22,20)          -0.0093         estimate D2E/DX2                !
 ! D48   D(3,17,22,23)         179.9726         estimate D2E/DX2                !
 ! D49   D(18,17,22,20)        179.9743         estimate D2E/DX2                !
 ! D50   D(18,17,22,23)         -0.0439         estimate D2E/DX2                !
 ! D51   D(14,20,22,17)         -0.0297         estimate D2E/DX2                !
 ! D52   D(14,20,22,23)        179.9888         estimate D2E/DX2                !
 ! D53   D(21,20,22,17)        179.9646         estimate D2E/DX2                !
 ! D54   D(21,20,22,23)         -0.0168         estimate D2E/DX2                !
 ! D55   D(26,25,27,28)         -0.0207         estimate D2E/DX2                !
 ! D56   D(26,25,27,33)        179.9762         estimate D2E/DX2                !
 ! D57   D(39,25,27,28)        179.9891         estimate D2E/DX2                !
 ! D58   D(39,25,27,33)         -0.014          estimate D2E/DX2                !
 ! D59   D(26,25,39,40)          0.0389         estimate D2E/DX2                !
 ! D60   D(26,25,39,44)       -179.9798         estimate D2E/DX2                !
 ! D61   D(27,25,39,40)       -179.9709         estimate D2E/DX2                !
 ! D62   D(27,25,39,44)          0.0104         estimate D2E/DX2                !
 ! D63   D(25,27,33,34)       -179.9959         estimate D2E/DX2                !
 ! D64   D(25,27,33,42)          0.0033         estimate D2E/DX2                !
 ! D65   D(28,27,33,34)          0.001          estimate D2E/DX2                !
 ! D66   D(28,27,33,42)       -179.9997         estimate D2E/DX2                !
 ! D67   D(31,30,35,16)         60.5187         estimate D2E/DX2                !
 ! D68   D(31,30,35,36)        -58.8766         estimate D2E/DX2                !
 ! D69   D(31,30,35,37)        179.9186         estimate D2E/DX2                !
 ! D70   D(32,30,35,16)        -60.7072         estimate D2E/DX2                !
 ! D71   D(32,30,35,36)        179.8975         estimate D2E/DX2                !
 ! D72   D(32,30,35,37)         58.6927         estimate D2E/DX2                !
 ! D73   D(41,30,35,16)        179.8984         estimate D2E/DX2                !
 ! D74   D(41,30,35,36)         60.5032         estimate D2E/DX2                !
 ! D75   D(41,30,35,37)        -60.7017         estimate D2E/DX2                !
 ! D76   D(31,30,41,34)        -59.6966         estimate D2E/DX2                !
 ! D77   D(32,30,41,34)         59.4375         estimate D2E/DX2                !
 ! D78   D(35,30,41,34)        179.877          estimate D2E/DX2                !
 ! D79   D(27,33,34,29)         -0.1439         estimate D2E/DX2                !
 ! D80   D(27,33,34,41)        179.8447         estimate D2E/DX2                !
 ! D81   D(42,33,34,29)        179.8568         estimate D2E/DX2                !
 ! D82   D(42,33,34,41)         -0.1545         estimate D2E/DX2                !
 ! D83   D(27,33,42,43)        179.9946         estimate D2E/DX2                !
 ! D84   D(27,33,42,44)          0.011          estimate D2E/DX2                !
 ! D85   D(34,33,42,43)         -0.0062         estimate D2E/DX2                !
 ! D86   D(34,33,42,44)       -179.9897         estimate D2E/DX2                !
 ! D87   D(29,34,41,30)         -0.0094         estimate D2E/DX2                !
 ! D88   D(33,34,41,30)       -179.9982         estimate D2E/DX2                !
 ! D89   D(57,38,40,39)        179.9928         estimate D2E/DX2                !
 ! D90   D(57,38,40,46)          0.0027         estimate D2E/DX2                !
 ! D91   D(40,38,57,52)       -179.9877         estimate D2E/DX2                !
 ! D92   D(40,38,57,58)         59.5814         estimate D2E/DX2                !
 ! D93   D(40,38,57,59)        -59.5528         estimate D2E/DX2                !
 ! D94   D(25,39,40,38)         -0.0749         estimate D2E/DX2                !
 ! D95   D(25,39,40,46)        179.915          estimate D2E/DX2                !
 ! D96   D(44,39,40,38)        179.9432         estimate D2E/DX2                !
 ! D97   D(44,39,40,46)         -0.0668         estimate D2E/DX2                !
 ! D98   D(25,39,44,42)          0.0039         estimate D2E/DX2                !
 ! D99   D(25,39,44,45)        179.9998         estimate D2E/DX2                !
 ! D100  D(40,39,44,42)        179.986          estimate D2E/DX2                !
 ! D101  D(40,39,44,45)         -0.0181         estimate D2E/DX2                !
 ! D102  D(33,42,44,39)         -0.0146         estimate D2E/DX2                !
 ! D103  D(33,42,44,45)        179.9897         estimate D2E/DX2                !
 ! D104  D(43,42,44,39)       -179.998          estimate D2E/DX2                !
 ! D105  D(43,42,44,45)          0.0062         estimate D2E/DX2                !
 ! D106  D(48,47,49,50)         -0.0342         estimate D2E/DX2                !
 ! D107  D(48,47,49,55)        179.94           estimate D2E/DX2                !
 ! D108  D(61,47,49,50)       -179.9873         estimate D2E/DX2                !
 ! D109  D(61,47,49,55)         -0.0131         estimate D2E/DX2                !
 ! D110  D(48,47,61,62)          0.0501         estimate D2E/DX2                !
 ! D111  D(48,47,61,66)       -179.9235         estimate D2E/DX2                !
 ! D112  D(49,47,61,62)       -179.9965         estimate D2E/DX2                !
 ! D113  D(49,47,61,66)          0.0299         estimate D2E/DX2                !
 ! D114  D(47,49,55,56)       -179.9725         estimate D2E/DX2                !
 ! D115  D(47,49,55,64)         -0.0089         estimate D2E/DX2                !
 ! D116  D(50,49,55,56)          0.0024         estimate D2E/DX2                !
 ! D117  D(50,49,55,64)        179.9659         estimate D2E/DX2                !
 ! D118  D(53,52,57,38)        -60.6138         estimate D2E/DX2                !
 ! D119  D(53,52,57,58)         58.7715         estimate D2E/DX2                !
 ! D120  D(53,52,57,59)        179.9986         estimate D2E/DX2                !
 ! D121  D(54,52,57,38)         60.5905         estimate D2E/DX2                !
 ! D122  D(54,52,57,58)        179.9759         estimate D2E/DX2                !
 ! D123  D(54,52,57,59)        -58.797          estimate D2E/DX2                !
 ! D124  D(63,52,57,38)        179.9883         estimate D2E/DX2                !
 ! D125  D(63,52,57,58)        -60.6264         estimate D2E/DX2                !
 ! D126  D(63,52,57,59)         60.6007         estimate D2E/DX2                !
 ! D127  D(53,52,63,56)         59.4813         estimate D2E/DX2                !
 ! D128  D(54,52,63,56)        -59.6606         estimate D2E/DX2                !
 ! D129  D(57,52,63,56)        179.9108         estimate D2E/DX2                !
 ! D130  D(49,55,56,51)         -0.159          estimate D2E/DX2                !
 ! D131  D(49,55,56,63)        179.8214         estimate D2E/DX2                !
 ! D132  D(64,55,56,51)        179.878          estimate D2E/DX2                !
 ! D133  D(64,55,56,63)         -0.1416         estimate D2E/DX2                !
 ! D134  D(49,55,64,65)       -179.9829         estimate D2E/DX2                !
 ! D135  D(49,55,64,66)          0.0142         estimate D2E/DX2                !
 ! D136  D(56,55,64,65)         -0.021          estimate D2E/DX2                !
 ! D137  D(56,55,64,66)        179.9761         estimate D2E/DX2                !
 ! D138  D(51,56,63,52)          0.0382         estimate D2E/DX2                !
 ! D139  D(55,56,63,52)       -179.9425         estimate D2E/DX2                !
 ! D140  D(69,60,62,61)       -179.6015         estimate D2E/DX2                !
 ! D141  D(69,60,62,68)          0.5154         estimate D2E/DX2                !
 ! D142  D(62,60,69,70)        -57.8618         estimate D2E/DX2                !
 ! D143  D(62,60,69,71)         60.6703         estimate D2E/DX2                !
 ! D144  D(62,60,69,72)       -178.78           estimate D2E/DX2                !
 ! D145  D(47,61,62,60)          0.3282         estimate D2E/DX2                !
 ! D146  D(47,61,62,68)       -179.7898         estimate D2E/DX2                !
 ! D147  D(66,61,62,60)       -179.6975         estimate D2E/DX2                !
 ! D148  D(66,61,62,68)          0.1845         estimate D2E/DX2                !
 ! D149  D(47,61,66,64)         -0.0246         estimate D2E/DX2                !
 ! D150  D(47,61,66,67)        179.9542         estimate D2E/DX2                !
 ! D151  D(62,61,66,64)       -179.9994         estimate D2E/DX2                !
 ! D152  D(62,61,66,67)         -0.0206         estimate D2E/DX2                !
 ! D153  D(55,64,66,61)          0.0025         estimate D2E/DX2                !
 ! D154  D(55,64,66,67)       -179.9757         estimate D2E/DX2                !
 ! D155  D(65,64,66,61)        179.9997         estimate D2E/DX2                !
 ! D156  D(65,64,66,67)          0.0214         estimate D2E/DX2                !
 ! D157  D(60,69,72,73)         57.6283         estimate D2E/DX2                !
 ! D158  D(60,69,72,74)        -60.9067         estimate D2E/DX2                !
 ! D159  D(60,69,72,75)       -178.248          estimate D2E/DX2                !
 ! D160  D(70,69,72,73)        -61.8005         estimate D2E/DX2                !
 ! D161  D(70,69,72,74)        179.6645         estimate D2E/DX2                !
 ! D162  D(70,69,72,75)         62.3233         estimate D2E/DX2                !
 ! D163  D(71,69,72,73)        177.4186         estimate D2E/DX2                !
 ! D164  D(71,69,72,74)         58.8836         estimate D2E/DX2                !
 ! D165  D(71,69,72,75)        -58.4577         estimate D2E/DX2                !
 ! D166  D(69,72,75,76)        -70.1432         estimate D2E/DX2                !
 ! D167  D(73,72,75,76)         52.8894         estimate D2E/DX2                !
 ! D168  D(74,72,75,76)        170.6226         estimate D2E/DX2                !
 --------------------------------------------------------------------------------
 Trust Radius=3.00D-01 FncErr=1.00D-07 GrdErr=1.00D-06 EigMax=2.50D+02 EigMin=1.00D-04
 Number of steps in this run=    384 maximum allowed number of steps=    456.
 GradGradGradGradGradGradGradGradGradGradGradGradGradGradGradGradGradGrad

 Symmetry turned off by external request.
 Stoichiometry    C32H30O14
 Framework group  C1[X(C32H30O14)]
 Deg. of freedom   222
 Full point group                 C1      NOp   1
                          Input orientation:                          
 ---------------------------------------------------------------------
 Center     Atomic      Atomic             Coordinates (Angstroms)
 Number     Number       Type             X           Y           Z
 ---------------------------------------------------------------------
      1          8           0        3.311866    6.387576   -1.443035
      2          1           0        4.232640    6.164080   -1.281075
      3          6           0       -0.373658    2.459258    4.978099
      4          1           0       -0.594758    1.530222    5.484880
      5          6           0        0.379694    2.465035    3.816468
      6          1           0        0.762859    1.546966    3.390753
      7          8           0        1.902916    2.598633    1.447055
      8          6           0        2.453050    4.834890    0.186663
      9          1           0        1.947769    4.249449   -0.582257
     10          1           0        3.427043    4.377651    0.377746
     11          6           0        2.589823    6.284472   -0.234558
     12          1           0        1.602921    6.706007   -0.425115
     13          1           0        3.054682    6.864895    0.568747
     14          6           0        0.656497    3.667658    3.173968
     15          6           0        1.473249    3.613080    1.925957
     16          8           0       -1.875388    2.503428    7.279192
     17          6           0       -0.849596    3.661284    5.495794
     18          6           0       -1.664466    3.716969    6.743096
     19          8           0        1.681784    4.824382    1.390907
     20          6           0        0.179806    4.869427    3.691353
     21          1           0        0.400338    5.797813    3.183187
     22          6           0       -0.573180    4.864087    4.853139
     23          1           0       -0.956602    5.782270    5.278393
     24          8           0       -2.092111    4.729025    7.227794
     25          6           0       -5.595853   -1.314103   13.679172
     26          1           0       -5.823774   -2.243567   14.182097
     27          6           0       -4.845617   -1.309325   12.515616
     28          1           0       -4.471653   -2.228742   12.084683
     29          8           0       -3.325542   -1.175394   10.142299
     30          6           0       -2.760754    1.053687    8.895072
     31          1           0       -1.779189    0.618494    9.086715
     32          1           0       -3.259561    0.455271    8.131789
     33          6           0       -4.560198   -0.105723   11.878504
     34          6           0       -3.748159   -0.162282   10.628911
     35          6           0       -2.650746    2.500825    8.477347
     36          1           0       -2.153499    3.099424    9.241570
     37          1           0       -3.632250    2.935550    8.284340
     38          8           0       -7.089149   -1.267757   15.985363
     39          6           0       -6.059722   -0.110450   14.203911
     40          6           0       -6.871289   -0.053853   15.453811
     41          8           0       -3.534230    1.051198   10.094801
     42          6           0       -5.024256    1.097911   12.403122
     43          1           0       -4.796584    2.027349   11.900034
     44          6           0       -5.774240    1.093159   13.566841
     45          1           0       -6.148056    2.012592   13.997871
     46          8           0       -7.290429    0.959616   15.942682
     47          6           0      -10.825164   -5.088958   22.374231
     48          1           0      -11.058156   -6.018731   22.874239
     49          6           0      -10.074077   -5.083682   21.211220
     50          1           0       -9.703854   -6.003229   20.777311
     51          8           0       -8.552124   -4.947992   18.838555
     52          6           0       -7.979342   -2.718169   17.598399
     53          1           0       -8.481523   -3.311432   16.833262
     54          1           0       -6.999809   -3.158931   17.787785
     55          6           0       -9.783190   -3.879231   20.578085
     56          6           0       -8.971183   -3.935074   19.328923
     57          6           0       -7.862258   -1.270251   17.185328
     58          1           0       -8.841674   -0.829495   16.995505
     59          1           0       -7.360123   -0.676835   17.950357
     60          8           0      -12.313398   -5.042843   24.683457
     61          6           0      -11.284673   -3.885413   22.902883
     62          6           0      -12.097944   -3.830663   24.153162
     63          8           0       -8.752055   -2.720593   18.798261
     64          6           0      -10.243017   -2.675546   21.106351
     65          1           0      -10.011572   -1.745350   20.606357
     66          6           0      -10.994022   -2.681207   22.269502
     67          1           0      -11.365162   -1.761897   22.703113
     68          8           0      -12.516172   -2.815052   24.639672
     69          6           0      -13.095942   -5.055023   25.880381
     70          1           0      -12.610126   -4.432591   26.635841
     71          1           0      -14.084139   -4.638873   25.681290
     72          6           0      -13.193689   -6.500378   26.326280
     73          1           0      -12.191243   -6.913615   26.476782
     74          1           0      -13.687237   -7.090223   25.553978
     75          8           0      -13.988067   -6.612451   27.487662
     76          1           0      -13.515464   -6.229719   28.232105
 ---------------------------------------------------------------------
 Rotational constants (GHZ):           0.5691823           0.0073379           0.0072474
 Standard basis: 6-311+G(2d,p) (5D, 7F)
  1422 basis functions,  2172 primitive gaussians,  1514 cartesian basis functions
   167 alpha electrons      167 beta electrons
       nuclear repulsion energy      4455.3434933626 Hartrees.
 NAtoms=   76 NActive=   76 NUniq=   76 SFac= 1.00D+00 NAtFMM=   60 NAOKFM=T Big=T
 Integral buffers will be    131072 words long.
 Raffenetti 2 integral format.
 Two-electron integral symmetry is turned off.
 One-electron integrals computed using PRISM.
 NBasis=  1422 RedAO= T EigKep=  1.07D-06  NBF=  1422
 NBsUse=  1412 1.00D-06 EigRej=  9.80D-07 NBFU=  1412
 Initial guess from the checkpoint file:  "/dev/shm/pet_freq.chk"
 B after Tr=     0.000000    0.000000    0.000000
         Rot=    1.000000    0.000000    0.000000    0.000000 Ang=   0.00 deg.
 Requested convergence on RMS density matrix=1.00D-08 within  32 cycles.
 Requested convergence on MAX density matrix=1.00D-06.
 Requested convergence on             energy=1.00D-06.
 No special actions if energy rises.
 SCF Done:  E(RM062X) =  -2290.50749608     A.U. after    1 cycles
            NFock=  1  Conv=0.41D-08     -V/T= 2.0034
 QCSCF skips out because SCF is already converged.

 **********************************************************************

            Population analysis using the SCF Density.

 **********************************************************************

 Alpha  occ. eigenvalues --  -19.69174 -19.69174 -19.69115 -19.69115 -19.68650
 Alpha  occ. eigenvalues --  -19.68649 -19.63981 -19.63980 -19.63158 -19.63158
 Alpha  occ. eigenvalues --  -19.63089 -19.63089 -19.62752 -19.62752 -10.69316
 Alpha  occ. eigenvalues --  -10.69316 -10.69243 -10.69243 -10.68922 -10.68921
 Alpha  occ. eigenvalues --  -10.61612 -10.61612 -10.61566 -10.61566 -10.60590
 Alpha  occ. eigenvalues --  -10.60590 -10.59988 -10.59988 -10.58156 -10.58153
 Alpha  occ. eigenvalues --  -10.58011 -10.58011 -10.57936 -10.57936 -10.57125
 Alpha  occ. eigenvalues --  -10.57121 -10.56981 -10.56981 -10.56941 -10.56941
 Alpha  occ. eigenvalues --  -10.56901 -10.56900 -10.56765 -10.56765 -10.56713
 Alpha  occ. eigenvalues --  -10.56712  -1.26328  -1.26326  -1.25910  -1.25907
 Alpha  occ. eigenvalues --   -1.25642  -1.25642  -1.16737  -1.16736  -1.16700
 Alpha  occ. eigenvalues --   -1.16700  -1.16303  -1.16303  -1.15881  -1.15881
 Alpha  occ. eigenvalues --   -0.99985  -0.99802  -0.99795  -0.92766  -0.92069
 Alpha  occ. eigenvalues --   -0.90999  -0.89947  -0.88642  -0.87517  -0.87499
 Alpha  occ. eigenvalues --   -0.87406  -0.86838  -0.86532  -0.81268  -0.79540
 Alpha  occ. eigenvalues --   -0.77274  -0.76068  -0.74347  -0.73348  -0.73159
 Alpha  occ. eigenvalues --   -0.71904  -0.71437  -0.71130  -0.69799  -0.69303
 Alpha  occ. eigenvalues --   -0.68034  -0.67447  -0.66334  -0.65841  -0.64436
 Alpha  occ. eigenvalues --   -0.64392  -0.64268  -0.62393  -0.62303  -0.62010
 Alpha  occ. eigenvalues --   -0.61776  -0.61760  -0.61065  -0.61047  -0.58927
 Alpha  occ. eigenvalues --   -0.58659  -0.58208  -0.57940  -0.57766  -0.57750
 Alpha  occ. eigenvalues --   -0.57668  -0.57652  -0.57395  -0.57307  -0.54570
 Alpha  occ. eigenvalues --   -0.54426  -0.54370  -0.53794  -0.53743  -0.53570
 Alpha  occ. eigenvalues --   -0.53437  -0.52807  -0.52510  -0.52467  -0.52039
 Alpha  occ. eigenvalues --   -0.51817  -0.51814  -0.51663  -0.51641  -0.51311
 Alpha  occ. eigenvalues --   -0.49924  -0.48922  -0.48430  -0.48362  -0.47616
 Alpha  occ. eigenvalues --   -0.47563  -0.46860  -0.46377  -0.46159  -0.45810
 Alpha  occ. eigenvalues --   -0.45374  -0.45262  -0.45242  -0.44828  -0.44545
 Alpha  occ. eigenvalues --   -0.44448  -0.44236  -0.42790  -0.42638  -0.42564
 Alpha  occ. eigenvalues --   -0.41779  -0.41772  -0.39838  -0.39808  -0.39533
 Alpha  occ. eigenvalues --   -0.39519  -0.39133  -0.39131  -0.37997  -0.37983
 Alpha  occ. eigenvalues --   -0.37595  -0.37592  -0.37478  -0.37428  -0.36931
 Alpha  occ. eigenvalues --   -0.36928  -0.33812  -0.33636  -0.33635  -0.33500
 Alpha  occ. eigenvalues --   -0.33343  -0.33343
 Alpha virt. eigenvalues --   -0.05616  -0.05399  -0.05374  -0.00389  -0.00244
 Alpha virt. eigenvalues --   -0.00239   0.00122   0.00283   0.00449   0.00671
 Alpha virt. eigenvalues --    0.01059   0.01436   0.01676   0.01698   0.02456
 Alpha virt. eigenvalues --    0.02661   0.02750   0.02842   0.03038   0.03187
 Alpha virt. eigenvalues --    0.03232   0.03500   0.03527   0.03585   0.03829
 Alpha virt. eigenvalues --    0.03878   0.03972   0.04398   0.04586   0.04796
 Alpha virt. eigenvalues --    0.05090   0.05188   0.05574   0.05584   0.05973
 Alpha virt. eigenvalues --    0.06321   0.06341   0.06708   0.06848   0.06879
 Alpha virt. eigenvalues --    0.07380   0.07461   0.07492   0.07514   0.07535
 Alpha virt. eigenvalues --    0.07902   0.08112   0.08409   0.08742   0.08778
 Alpha virt. eigenvalues --    0.09372   0.09410   0.09711   0.09893   0.10144
 Alpha virt. eigenvalues --    0.10161   0.10196   0.10859   0.10977   0.11044
 Alpha virt. eigenvalues --    0.11124   0.11669   0.11724   0.11741   0.12142
 Alpha virt. eigenvalues --    0.12943   0.13113   0.13200   0.13239   0.13335
 Alpha virt. eigenvalues --    0.13644   0.13786   0.13968   0.14143   0.14197
 Alpha virt. eigenvalues --    0.14304   0.14467   0.14533   0.14784   0.14926
 Alpha virt. eigenvalues --    0.14933   0.15157   0.15356   0.15487   0.15918
 Alpha virt. eigenvalues --    0.16055   0.16289   0.16788   0.17336   0.17486
 Alpha virt. eigenvalues --    0.17528   0.17619   0.17663   0.17679   0.17826
 Alpha virt. eigenvalues --    0.18087   0.18152   0.18203   0.18358   0.18799
 Alpha virt. eigenvalues --    0.18835   0.18891   0.18998   0.19174   0.19427
 Alpha virt. eigenvalues --    0.19476   0.19765   0.19798   0.19810   0.20206
 Alpha virt. eigenvalues --    0.20435   0.20568   0.20681   0.20731   0.20927
 Alpha virt. eigenvalues --    0.20976   0.21208   0.21234   0.21437   0.21582
 Alpha virt. eigenvalues --    0.21718   0.22104   0.22136   0.22428   0.22445
 Alpha virt. eigenvalues --    0.22493   0.22701   0.22837   0.22837   0.23148
 Alpha virt. eigenvalues --    0.23195   0.23342   0.23647   0.23657   0.23915
 Alpha virt. eigenvalues --    0.24118   0.24238   0.24320   0.24331   0.24473
 Alpha virt. eigenvalues --    0.24716   0.24822   0.24967   0.24983   0.25193
 Alpha virt. eigenvalues --    0.25404   0.25629   0.25803   0.25961   0.26042
 Alpha virt. eigenvalues --    0.26142   0.26395   0.26588   0.26924   0.26986
 Alpha virt. eigenvalues --    0.27381   0.27735   0.27795   0.28269   0.28356
 Alpha virt. eigenvalues --    0.28617   0.28643   0.28742   0.28798   0.28826
 Alpha virt. eigenvalues --    0.29048   0.29150   0.29166   0.29380   0.29402
 Alpha virt. eigenvalues --    0.29754   0.29881   0.29899   0.29907   0.29945
 Alpha virt. eigenvalues --    0.29986   0.30052   0.30301   0.30654   0.30830
 Alpha virt. eigenvalues --    0.31463   0.31482   0.31671   0.32019   0.32212
 Alpha virt. eigenvalues --    0.32245   0.32284   0.32480   0.32563   0.32757
 Alpha virt. eigenvalues --    0.32896   0.33085   0.33355   0.33416   0.33604
 Alpha virt. eigenvalues --    0.33728   0.33781   0.33823   0.33844   0.33907
 Alpha virt. eigenvalues --    0.34074   0.34318   0.34366   0.34445   0.34728
 Alpha virt. eigenvalues --    0.34913   0.35011   0.35083   0.35274   0.35553
 Alpha virt. eigenvalues --    0.35701   0.36080   0.36527   0.36841   0.36926
 Alpha virt. eigenvalues --    0.37253   0.37909   0.37966   0.38311   0.39158
 Alpha virt. eigenvalues --    0.39770   0.40082   0.40266   0.40300   0.40873
 Alpha virt. eigenvalues --    0.41319   0.41576   0.41923   0.42179   0.42270
 Alpha virt. eigenvalues --    0.42460   0.42521   0.42787   0.42803   0.42928
 Alpha virt. eigenvalues --    0.43360   0.43779   0.44162   0.44355   0.44602
 Alpha virt. eigenvalues --    0.44981   0.45335   0.45426   0.45541   0.45767
 Alpha virt. eigenvalues --    0.46328   0.46443   0.46449   0.46661   0.47304
 Alpha virt. eigenvalues --    0.47650   0.48166   0.48637   0.48745   0.48751
 Alpha virt. eigenvalues --    0.49167   0.49912   0.50106   0.50120   0.50347
 Alpha virt. eigenvalues --    0.50650   0.51108   0.51981   0.52248   0.52310
 Alpha virt. eigenvalues --    0.52574   0.52668   0.53201   0.53282   0.53786
 Alpha virt. eigenvalues --    0.53786   0.53840   0.54082   0.54218   0.54418
 Alpha virt. eigenvalues --    0.54616   0.55008   0.55234   0.55241   0.55397
 Alpha virt. eigenvalues --    0.55784   0.56274   0.56444   0.57034   0.57166
 Alpha virt. eigenvalues --    0.57411   0.57700   0.58225   0.58258   0.58416
 Alpha virt. eigenvalues --    0.58624   0.59164   0.59822   0.59840   0.60398
 Alpha virt. eigenvalues --    0.60565   0.60867   0.60988   0.61150   0.61156
 Alpha virt. eigenvalues --    0.61410   0.61420   0.61510   0.61595   0.61925
 Alpha virt. eigenvalues --    0.62113   0.62272   0.62483   0.63206   0.63284
 Alpha virt. eigenvalues --    0.63401   0.63468   0.63910   0.63968   0.64270
 Alpha virt. eigenvalues --    0.64793   0.64799   0.65174   0.65443   0.65463
 Alpha virt. eigenvalues --    0.66117   0.66840   0.67061   0.67410   0.67544
 Alpha virt. eigenvalues --    0.67553   0.67874   0.68052   0.68081   0.68392
 Alpha virt. eigenvalues --    0.68878   0.68890   0.69223   0.69338   0.69410
 Alpha virt. eigenvalues --    0.70256   0.70399   0.70632   0.70649   0.70742
 Alpha virt. eigenvalues --    0.70877   0.70964   0.71063   0.71407   0.71586
 Alpha virt. eigenvalues --    0.71781   0.72151   0.72227   0.72335   0.72596
 Alpha virt. eigenvalues --    0.72783   0.72976   0.73052   0.74181   0.74300
 Alpha virt. eigenvalues --    0.74498   0.74783   0.74807   0.75327   0.75383
 Alpha virt. eigenvalues --    0.75614   0.75950   0.76332   0.76396   0.76642
 Alpha virt. eigenvalues --    0.76911   0.77057   0.77254   0.77354   0.77497
 Alpha virt. eigenvalues --    0.77771   0.77961   0.78358   0.78372   0.78792
 Alpha virt. eigenvalues --    0.78943   0.79173   0.79518   0.79520   0.80109
 Alpha virt. eigenvalues --    0.80505   0.81222   0.81465   0.81508   0.81851
 Alpha virt. eigenvalues --    0.82067   0.82965   0.83071   0.83090   0.83218
 Alpha virt. eigenvalues --    0.83517   0.83565   0.83975   0.85061   0.85090
 Alpha virt. eigenvalues --    0.85353   0.85418   0.85909   0.86015   0.86330
 Alpha virt. eigenvalues --    0.86356   0.86435   0.87096   0.87104   0.87457
 Alpha virt. eigenvalues --    0.87973   0.88011   0.88431   0.89297   0.89453
 Alpha virt. eigenvalues --    0.89599   0.89807   0.90301   0.90424   0.91018
 Alpha virt. eigenvalues --    0.91244   0.91578   0.91690   0.92412   0.92674
 Alpha virt. eigenvalues --    0.92719   0.92950   0.93893   0.94327   0.94349
 Alpha virt. eigenvalues --    0.95370   0.95947   0.96520   0.96624   0.97166
 Alpha virt. eigenvalues --    0.97460   0.97628   0.97675   0.97930   0.98436
 Alpha virt. eigenvalues --    0.98514   0.98713   0.98787   0.98910   0.99031
 Alpha virt. eigenvalues --    0.99213   0.99801   1.00151   1.00700   1.00820
 Alpha virt. eigenvalues --    1.01150   1.01476   1.01568   1.01759   1.01931
 Alpha virt. eigenvalues --    1.02314   1.02934   1.02939   1.04130   1.04183
 Alpha virt. eigenvalues --    1.04521   1.04666   1.05000   1.05629   1.06691
 Alpha virt. eigenvalues --    1.06808   1.07940   1.07957   1.08708   1.09752
 Alpha virt. eigenvalues --    1.10016   1.10556   1.11229   1.11716   1.11957
 Alpha virt. eigenvalues --    1.12600   1.12722   1.13115   1.13361   1.14082
 Alpha virt. eigenvalues --    1.14118   1.14286   1.14606   1.14747   1.14844
 Alpha virt. eigenvalues --    1.14970   1.15226   1.15385   1.15646   1.15701
 Alpha virt. eigenvalues --    1.15730   1.16222   1.16530   1.17421   1.17422
 Alpha virt. eigenvalues --    1.17512   1.17530   1.17841   1.18263   1.18395
 Alpha virt. eigenvalues --    1.18697   1.18915   1.19569   1.19758   1.19802
 Alpha virt. eigenvalues --    1.20329   1.20370   1.20767   1.20862   1.21431
 Alpha virt. eigenvalues --    1.21485   1.21715   1.21811   1.22079   1.22895
 Alpha virt. eigenvalues --    1.23803   1.23818   1.24294   1.24668   1.24877
 Alpha virt. eigenvalues --    1.25320   1.25351   1.25681   1.25769   1.26095
 Alpha virt. eigenvalues --    1.26223   1.26258   1.26483   1.26680   1.26754
 Alpha virt. eigenvalues --    1.27009   1.27491   1.27991   1.28236   1.28715
 Alpha virt. eigenvalues --    1.28879   1.28900   1.29117   1.29223   1.29406
 Alpha virt. eigenvalues --    1.29569   1.29660   1.31041   1.31076   1.31242
 Alpha virt. eigenvalues --    1.31509   1.32409   1.32468   1.32882   1.33747
 Alpha virt. eigenvalues --    1.34333   1.34730   1.35118   1.35366   1.35818
 Alpha virt. eigenvalues --    1.36373   1.36881   1.37070   1.37554   1.37661
 Alpha virt. eigenvalues --    1.37871   1.38464   1.39002   1.39143   1.39290
 Alpha virt. eigenvalues --    1.39703   1.40427   1.40553   1.40725   1.40777
 Alpha virt. eigenvalues --    1.41432   1.41724   1.41838   1.41998   1.42362
 Alpha virt. eigenvalues --    1.42516   1.43652   1.44240   1.44967   1.46467
 Alpha virt. eigenvalues --    1.46538   1.48259   1.48721   1.48815   1.49964
 Alpha virt. eigenvalues --    1.50346   1.50676   1.51942   1.51956   1.53297
 Alpha virt. eigenvalues --    1.53562   1.53806   1.53937   1.54110   1.54217
 Alpha virt. eigenvalues --    1.56825   1.57188   1.57478   1.57737   1.57921
 Alpha virt. eigenvalues --    1.58944   1.59087   1.59093   1.59523   1.59544
 Alpha virt. eigenvalues --    1.59634   1.60196   1.60370   1.60555   1.60937
 Alpha virt. eigenvalues --    1.61094   1.61391   1.61551   1.61815   1.64021
 Alpha virt. eigenvalues --    1.64092   1.64273   1.64360   1.64549   1.64570
 Alpha virt. eigenvalues --    1.64848   1.65073   1.65744   1.65838   1.67033
 Alpha virt. eigenvalues --    1.67250   1.68476   1.68481   1.68841   1.69086
 Alpha virt. eigenvalues --    1.72373   1.72612   1.74134   1.74419   1.75329
 Alpha virt. eigenvalues --    1.75355   1.75911   1.76275   1.76522   1.76542
 Alpha virt. eigenvalues --    1.76728   1.76877   1.77259   1.77422   1.78205
 Alpha virt. eigenvalues --    1.78608   1.78634   1.78660   1.78764   1.79832
 Alpha virt. eigenvalues --    1.80485   1.80552   1.80620   1.80627   1.80750
 Alpha virt. eigenvalues --    1.81000   1.81312   1.83102   1.83256   1.83375
 Alpha virt. eigenvalues --    1.83635   1.83830   1.84628   1.84958   1.85275
 Alpha virt. eigenvalues --    1.85939   1.85962   1.86171   1.86660   1.86668
 Alpha virt. eigenvalues --    1.87377   1.87410   1.87534   1.87907   1.90315
 Alpha virt. eigenvalues --    1.90372   1.90731   1.91541   1.92426   1.93165
 Alpha virt. eigenvalues --    1.96605   1.96892   1.99160   1.99522   1.99681
 Alpha virt. eigenvalues --    1.99689   1.99717   2.00499   2.00783   2.01070
 Alpha virt. eigenvalues --    2.01210   2.01490   2.03085   2.03115   2.03395
 Alpha virt. eigenvalues --    2.03424   2.04722   2.05462   2.05766   2.12383
 Alpha virt. eigenvalues --    2.12453   2.12677   2.13471   2.13702   2.14013
 Alpha virt. eigenvalues --    2.14049   2.15245   2.15317   2.16252   2.16403
 Alpha virt. eigenvalues --    2.17385   2.17603   2.18477   2.19269   2.19811
 Alpha virt. eigenvalues --    2.20086   2.20224   2.20247   2.20568   2.21106
 Alpha virt. eigenvalues --    2.21488   2.22215   2.23765   2.24862   2.24969
 Alpha virt. eigenvalues --    2.25698   2.25837   2.25936   2.26157   2.26294
 Alpha virt. eigenvalues --    2.26861   2.28443   2.28478   2.31411   2.31786
 Alpha virt. eigenvalues --    2.32654   2.32707   2.33466   2.33888   2.34010
 Alpha virt. eigenvalues --    2.34860   2.35367   2.35475   2.36343   2.36905
 Alpha virt. eigenvalues --    2.37035   2.39382   2.40764   2.41947   2.42175
 Alpha virt. eigenvalues --    2.42423   2.42585   2.43521   2.44191   2.44242
 Alpha virt. eigenvalues --    2.45101   2.45155   2.45673   2.47033   2.48137
 Alpha virt. eigenvalues --    2.48146   2.48415   2.51737   2.51742   2.55837
 Alpha virt. eigenvalues --    2.55912   2.55950   2.56171   2.56429   2.56485
 Alpha virt. eigenvalues --    2.56809   2.57074   2.58536   2.58581   2.59141
 Alpha virt. eigenvalues --    2.59426   2.60077   2.60750   2.60988   2.61307
 Alpha virt. eigenvalues --    2.62091   2.63532   2.63997   2.66039   2.66161
 Alpha virt. eigenvalues --    2.66673   2.67833   2.67894   2.68837   2.69038
 Alpha virt. eigenvalues --    2.69281   2.70357   2.70602   2.70620   2.72046
 Alpha virt. eigenvalues --    2.72457   2.72609   2.72833   2.72920   2.73112
 Alpha virt. eigenvalues --    2.73372   2.73400   2.73875   2.74646   2.76731
 Alpha virt. eigenvalues --    2.77226   2.77373   2.78325   2.78441   2.78455
 Alpha virt. eigenvalues --    2.79078   2.79105   2.79518   2.79810   2.79907
 Alpha virt. eigenvalues --    2.80178   2.80181   2.80336   2.80509   2.80900
 Alpha virt. eigenvalues --    2.81618   2.83356   2.83721   2.85278   2.85319
 Alpha virt. eigenvalues --    2.85967   2.85986   2.86356   2.86430   2.86635
 Alpha virt. eigenvalues --    2.86685   2.92673   2.92907   2.92991   2.94048
 Alpha virt. eigenvalues --    2.94094   2.95959   2.96310   2.96429   2.96980
 Alpha virt. eigenvalues --    2.97226   2.97487   2.97558   2.97820   2.98681
 Alpha virt. eigenvalues --    2.98747   3.00012   3.00486   3.01134   3.02437
 Alpha virt. eigenvalues --    3.03910   3.07292   3.07747   3.08250   3.09749
 Alpha virt. eigenvalues --    3.10332   3.10764   3.11197   3.11265   3.11583
 Alpha virt. eigenvalues --    3.12163   3.12581   3.12917   3.12950   3.14312
 Alpha virt. eigenvalues --    3.14818   3.14847   3.14943   3.16251   3.16363
 Alpha virt. eigenvalues --    3.16807   3.16957   3.17793   3.17867   3.18183
 Alpha virt. eigenvalues --    3.21530   3.21571   3.21696   3.22497   3.22577
 Alpha virt. eigenvalues --    3.22775   3.23080   3.23553   3.23843   3.25933
 Alpha virt. eigenvalues --    3.25946   3.27277   3.27482   3.29431   3.29758
 Alpha virt. eigenvalues --    3.29871   3.30140   3.30214   3.30292   3.30322
 Alpha virt. eigenvalues --    3.30480   3.30709   3.31222   3.31227   3.32094
 Alpha virt. eigenvalues --    3.32198   3.32968   3.34646   3.34718   3.34725
 Alpha virt. eigenvalues --    3.35683   3.36208   3.36699   3.37012   3.37577
 Alpha virt. eigenvalues --    3.37815   3.38963   3.39518   3.41201   3.41638
 Alpha virt. eigenvalues --    3.41769   3.41960   3.42015   3.42108   3.42122
 Alpha virt. eigenvalues --    3.42140   3.42500   3.42703   3.43112   3.44103
 Alpha virt. eigenvalues --    3.44277   3.44380   3.44589   3.44875   3.44995
 Alpha virt. eigenvalues --    3.45160   3.46066   3.46798   3.46957   3.48440
 Alpha virt. eigenvalues --    3.48453   3.48718   3.48739   3.49180   3.50517
 Alpha virt. eigenvalues --    3.51141   3.51581   3.51769   3.51926   3.53134
 Alpha virt. eigenvalues --    3.53207   3.53637   3.53835   3.53875   3.54439
 Alpha virt. eigenvalues --    3.54657   3.54794   3.55007   3.55321   3.55427
 Alpha virt. eigenvalues --    3.55923   3.56154   3.56525   3.56648   3.58141
 Alpha virt. eigenvalues --    3.58504   3.58665   3.58670   3.58931   3.59891
 Alpha virt. eigenvalues --    3.60061   3.61869   3.61870   3.61964   3.62157
 Alpha virt. eigenvalues --    3.62163   3.62372   3.62495   3.63448   3.63566
 Alpha virt. eigenvalues --    3.64053   3.64451   3.64603   3.64759   3.65200
 Alpha virt. eigenvalues --    3.65214   3.65939   3.65975   3.66737   3.67012
 Alpha virt. eigenvalues --    3.67180   3.67238   3.69049   3.70660   3.70712
 Alpha virt. eigenvalues --    3.71064   3.71457   3.71511   3.71776   3.72086
 Alpha virt. eigenvalues --    3.72703   3.72706   3.75727   3.75835   3.76748
 Alpha virt. eigenvalues --    3.76921   3.76924   3.77097   3.77866   3.78251
 Alpha virt. eigenvalues --    3.78405   3.79262   3.79711   3.80585   3.86232
 Alpha virt. eigenvalues --    3.86613   3.86986   3.87920   3.88031   3.88311
 Alpha virt. eigenvalues --    3.89034   3.89135   3.89683   3.90878   3.91128
 Alpha virt. eigenvalues --    3.91622   3.92571   3.92602   3.93121   3.93445
 Alpha virt. eigenvalues --    3.93892   3.94562   3.94790   3.95405   3.98180
 Alpha virt. eigenvalues --    4.00996   4.01893   4.02221   4.02265   4.02714
 Alpha virt. eigenvalues --    4.03154   4.03878   4.04345   4.05633   4.06074
 Alpha virt. eigenvalues --    4.06929   4.07941   4.09494   4.10121   4.11028
 Alpha virt. eigenvalues --    4.11097   4.12344   4.12425   4.12873   4.12972
 Alpha virt. eigenvalues --    4.16334   4.16572   4.16767   4.17714   4.18401
 Alpha virt. eigenvalues --    4.19291   4.20429   4.20446   4.20474   4.20580
 Alpha virt. eigenvalues --    4.20697   4.20844   4.20863   4.22572   4.22947
 Alpha virt. eigenvalues --    4.22960   4.22971   4.23392   4.24397   4.24399
 Alpha virt. eigenvalues --    4.51332   4.51337   4.52600   4.52787   4.52792
 Alpha virt. eigenvalues --    4.56651   4.56749   4.64786   4.64794   4.65083
 Alpha virt. eigenvalues --    4.65258   4.65492   4.66073   4.81414   4.81542
 Alpha virt. eigenvalues --    4.81543   4.92788   4.93186   4.93837   5.10994
 Alpha virt. eigenvalues --    5.11337   5.11901   5.11911   5.12285   5.12546
 Alpha virt. eigenvalues --    5.17646   5.17676   5.18144   5.18146   5.18354
 Alpha virt. eigenvalues --    5.18494   5.20770   5.20795   5.31696   5.32025
 Alpha virt. eigenvalues --    5.32276   5.44240   5.45009   5.46573   5.47035
 Alpha virt. eigenvalues --    5.49914   5.49930   5.50473   5.51705   5.56041
 Alpha virt. eigenvalues --    5.56574   5.57652   5.57944   5.59186   5.59732
 Alpha virt. eigenvalues --    5.87977   5.87977   5.94074   5.95348   5.97218
 Alpha virt. eigenvalues --    5.99162   6.01059   6.02325   6.22835   6.23011
 Alpha virt. eigenvalues --    6.23138   6.23585   6.23623   6.23838   6.76857
 Alpha virt. eigenvalues --    6.76978   6.77010   6.77133   6.77392   6.77396
 Alpha virt. eigenvalues --    6.87801   6.87806   6.90301   6.90438   6.90593
 Alpha virt. eigenvalues --    6.91464   6.91744   6.91966   6.92452   6.92495
 Alpha virt. eigenvalues --    6.92871   6.92930   6.93085   6.93087   6.95963
 Alpha virt. eigenvalues --    6.95963   6.98597   6.98734   7.00493   7.00502
 Alpha virt. eigenvalues --    7.01433   7.01511   7.02018   7.02020   7.04786
 Alpha virt. eigenvalues --    7.04811   7.05686   7.05698   7.06285   7.06361
 Alpha virt. eigenvalues --    7.09442   7.09647   7.09717   7.10000   7.10271
 Alpha virt. eigenvalues --    7.10272   7.14064   7.14074   7.20826   7.21102
 Alpha virt. eigenvalues --    7.21193   7.21391   7.21408   7.21419   7.25619
 Alpha virt. eigenvalues --    7.25655   7.26009   7.27243   7.27265   7.27484
 Alpha virt. eigenvalues --    7.30828   7.30831   7.41188   7.41456   7.44754
 Alpha virt. eigenvalues --    7.45334   7.45979   7.46113   7.50573   7.50696
 Alpha virt. eigenvalues --    7.52339   7.53251   7.53541   7.53961  23.82857
 Alpha virt. eigenvalues --   23.82865  23.83120  24.00231  24.00249  24.03060
 Alpha virt. eigenvalues --   24.03255  24.03452  24.04267  24.04820  24.08707
 Alpha virt. eigenvalues --   24.08847  24.09225  24.09567  24.10380  24.10721
 Alpha virt. eigenvalues --   24.11082  24.13277  24.13692  24.13790  24.25114
 Alpha virt. eigenvalues --   24.25470  24.25845  24.25969  24.26205  24.26351
 Alpha virt. eigenvalues --   24.31516  24.31697  24.31897  24.32043  24.32465
 Alpha virt. eigenvalues --   24.32492  50.05513  50.05516  50.12436  50.12459
 Alpha virt. eigenvalues --   50.12477  50.12488  50.13651  50.13713  50.16293
 Alpha virt. eigenvalues --   50.16552  50.16827  50.19308  50.19703  50.19727
          Condensed to atoms (all electrons):
 Mulliken charges:
               1
     1  O   -0.389589
     2  H    0.266546
     3  C   -0.449603
     4  H    0.162475
     5  C   -0.231877
     6  H    0.165192
     7  O   -0.426731
     8  C   -0.053948
     9  H    0.182377
    10  H    0.160507
    11  C   -0.080245
    12  H    0.158263
    13  H    0.146874
    14  C    0.361195
    15  C    0.343968
    16  O   -0.342453
    17  C    0.353774
    18  C    0.380483
    19  O   -0.347282
    20  C   -0.446070
    21  H    0.160659
    22  C   -0.281188
    23  H    0.164399
    24  O   -0.422944
    25  C   -0.381141
    26  H    0.163388
    27  C   -0.382267
    28  H    0.166063
    29  O   -0.426982
    30  C    0.125877
    31  H    0.178986
    32  H    0.179200
    33  C    0.279878
    34  C    0.433695
    35  C    0.112868
    36  H    0.178423
    37  H    0.178608
    38  O   -0.341360
    39  C    0.279900
    40  C    0.433712
    41  O   -0.341358
    42  C   -0.381169
    43  H    0.163385
    44  C   -0.382295
    45  H    0.166063
    46  O   -0.426987
    47  C   -0.445635
    48  H    0.160670
    49  C   -0.281298
    50  H    0.164404
    51  O   -0.422944
    52  C    0.112913
    53  H    0.178621
    54  H    0.178410
    55  C    0.353556
    56  C    0.380774
    57  C    0.125876
    58  H    0.179194
    59  H    0.178988
    60  O   -0.347140
    61  C    0.360916
    62  C    0.344084
    63  O   -0.342455
    64  C   -0.449490
    65  H    0.162472
    66  C   -0.232142
    67  H    0.165187
    68  O   -0.426741
    69  C   -0.053212
    70  H    0.160575
    71  H    0.182377
    72  C   -0.081245
    73  H    0.146962
    74  H    0.158196
    75  O   -0.389642
    76  H    0.266500
 Sum of Mulliken charges =  -0.00000
 Mulliken charges with hydrogens summed into heavy atoms:
               1
     1  O   -0.123042
     3  C   -0.287128
     5  C   -0.066685
     7  O   -0.426731
     8  C    0.288937
    11  C    0.224892
    14  C    0.361195
    15  C    0.343968
    16  O   -0.342453
    17  C    0.353774
    18  C    0.380483
    19  O   -0.347282
    20  C   -0.285411
    22  C   -0.116789
    24  O   -0.422944
    25  C   -0.217754
    27  C   -0.216203
    29  O   -0.426982
    30  C    0.484062
    33  C    0.279878
    34  C    0.433695
    35  C    0.469899
    38  O   -0.341360
    39  C    0.279900
    40  C    0.433712
    41  O   -0.341358
    42  C   -0.217784
    44  C   -0.216232
    46  O   -0.426987
    47  C   -0.284965
    49  C   -0.116894
    51  O   -0.422944
    52  C    0.469943
    55  C    0.353556
    56  C    0.380774
    57  C    0.484058
    60  O   -0.347140
    61  C    0.360916
    62  C    0.344084
    63  O   -0.342455
    64  C   -0.287018
    66  C   -0.066955
    68  O   -0.426741
    69  C    0.289740
    72  C    0.223913
    75  O   -0.123142
 Electronic spatial extent (au):  <R**2>=         368826.1360
 Charge=              0.0000 electrons
 Dipole moment (field-independent basis, Debye):
    X=              2.1324    Y=              0.2440    Z=              1.3869  Tot=              2.5554
 Quadrupole moment (field-independent basis, Debye-Ang):
   XX=           -290.1324   YY=           -270.2744   ZZ=           -231.9256
   XY=             12.9535   XZ=             26.7472   YZ=            -17.9157
 Traceless Quadrupole moment (field-independent basis, Debye-Ang):
   XX=            -26.0216   YY=             -6.1636   ZZ=             32.1852
   XY=             12.9535   XZ=             26.7472   YZ=            -17.9157
 Octapole moment (field-independent basis, Debye-Ang**2):
  XXX=           4984.8429  YYY=            115.6893  ZZZ=          -8812.2044  XYY=           1540.8636
  XXY=            148.0124  XXZ=          -4291.6138  XZZ=           1866.2872  YZZ=           -684.3706
  YYZ=          -3513.4617  XYZ=            123.9799
 Hexadecapole moment (field-independent basis, Debye-Ang**3):
 XXXX=         -98067.1328 YYYY=         -22515.4039 ZZZZ=        -323879.8734 XXXY=         -16615.4961
 XXXZ=         106765.3168 YYYX=         -14681.9442 YYYZ=          25179.7822 ZZZX=          95147.4749
 ZZZY=           4790.6192 XXYY=         -19008.8166 XXZZ=         -98296.1507 YYZZ=         -67912.4966
 XXYZ=          10235.5792 YYXZ=          31196.4820 ZZXY=          -2201.3637
 N-N= 4.455343493363D+03 E-N=-1.426755995682D+04  KE= 2.282722400617D+03
 Calling FoFJK, ICntrl=      2127 FMM=T ISym2X=0 I1Cent= 0 IOpClX= 0 NMat=1 NMatS=1 NMatT=0.
 -------------------------------------------------------------------
 Center     Atomic                   Forces (Hartrees/Bohr)
 Number     Number              X              Y              Z
 -------------------------------------------------------------------
      1        8           0.000000243   -0.000002930   -0.000002327
      2        1           0.000000870    0.000002646    0.000000773
      3        6          -0.000000956    0.000000701    0.000001599
      4        1           0.000000927   -0.000000002   -0.000000064
      5        6           0.000001615    0.000001598   -0.000001441
      6        1           0.000000574   -0.000000390    0.000001077
      7        8           0.000000424    0.000000911    0.000000115
      8        6           0.000002005    0.000001144   -0.000000514
      9        1           0.000000418    0.000000254   -0.000000809
     10        1           0.000000379    0.000000152    0.000000184
     11        6          -0.000000450   -0.000000391    0.000000263
     12        1          -0.000000426    0.000000343    0.000000272
     13        1           0.000000196   -0.000000292    0.000000207
     14        6          -0.000001962    0.000001755    0.000002902
     15        6           0.000001924   -0.000002593    0.000001800
     16        8          -0.000002120   -0.000000797   -0.000001090
     17        6           0.000000569   -0.000002231   -0.000003699
     18        6           0.000005311    0.000004657    0.000002367
     19        8          -0.000002262    0.000000033    0.000000532
     20        6           0.000000983   -0.000000933   -0.000001695
     21        1          -0.000000626    0.000000058    0.000000105
     22        6          -0.000001400   -0.000001693    0.000001597
     23        1          -0.000000439    0.000000335   -0.000001065
     24        8          -0.000002956   -0.000002673   -0.000001151
     25        6          -0.000001040    0.000000747    0.000001594
     26        1           0.000000938    0.000000005   -0.000000053
     27        6           0.000001611    0.000001621   -0.000001485
     28        1           0.000000448   -0.000000369    0.000001014
     29        8           0.000003979    0.000002599    0.000001849
     30        6          -0.000000521    0.000000540    0.000001039
     31        1           0.000000968    0.000000363    0.000000317
     32        1           0.000000455   -0.000000467   -0.000000459
     33        6           0.000000570    0.000002302    0.000004465
     34        6          -0.000007895   -0.000004891   -0.000004219
     35        6           0.000001119   -0.000000491   -0.000000739
     36        1          -0.000000286    0.000000614    0.000000115
     37        1          -0.000001154   -0.000000509   -0.000000075
     38        8           0.000001464   -0.000000363    0.000001042
     39        6           0.000004371   -0.000001673   -0.000001295
     40        6          -0.000007758    0.000003265   -0.000005885
     41        8           0.000002641    0.000000763    0.000001632
     42        6           0.000000677   -0.000000854   -0.000001863
     43        1          -0.000000665    0.000000024    0.000000194
     44        6          -0.000001384   -0.000001696    0.000001721
     45        1          -0.000000552    0.000000362   -0.000001088
     46        8           0.000002064   -0.000002046    0.000001990
     47        6          -0.000001078    0.000000721    0.000001832
     48        1           0.000000808   -0.000000075   -0.000000054
     49        6           0.000001596    0.000001758   -0.000001607
     50        1           0.000000369   -0.000000384    0.000001001
     51        8           0.000004920    0.000002945    0.000002433
     52        6          -0.000000359    0.000000509    0.000001293
     53        1           0.000000401   -0.000000381   -0.000000604
     54        1           0.000000785    0.000000298    0.000000362
     55        6           0.000001501    0.000002220    0.000004935
     56        6          -0.000010661   -0.000005159   -0.000005922
     57        6           0.000001392   -0.000000439   -0.000000445
     58        1          -0.000001311   -0.000000556   -0.000000181
     59        1          -0.000000525    0.000000628    0.000000014
     60        8           0.000001307   -0.000000085   -0.000000711
     61        6           0.000005135   -0.000001196   -0.000000607
     62        6          -0.000010092    0.000001770   -0.000007489
     63        8           0.000003243    0.000000769    0.000001794
     64        6           0.000000523   -0.000000626   -0.000002011
     65        1          -0.000000756    0.000000012    0.000000208
     66        6          -0.000001484   -0.000001689    0.000001744
     67        1          -0.000000659    0.000000414   -0.000001118
     68        8           0.000003461   -0.000000423    0.000002378
     69        6           0.000001935   -0.000001373    0.000002283
[...]
 61,0.00000008,-0.00001868,0.00001722,0.00000471,-0.00000213,-0.0000088
 3,0.00000055,-0.00000138,0.00000021,-0.00000064,0.00000182,0.00000105,
 -0.00000061,-0.00000045,0.00000086,0.,-0.00000026,-0.00000027,-0.00000
 057,0.00000013,-0.00000026,0.00000207,-0.00000300,-0.00000044,0.000001
 64,-0.00000289,-0.00000183,0.00000089,-0.00000094,0.00000071,-0.000000
 64,0.00000038,-0.00000025,0.00000003,-0.00000017,-0.00000028,-0.000808
 79,-0.00095027,0.00152401,0.00000521,-0.00005766,-0.00000536,-0.000167
 12,0.00028253,0.00033988,0.00000068,0.00000186,-0.00000033,-0.00000607
 ,-0.00000427,0.00000381,-0.00000031,0.00000028,0.00000091,-0.00000105,
 0.00000726,0.00001153,-0.00000237,-0.00000461,0.00000447,0.00005272,0.
 00008752,-0.00038785,0.00515994,0.00573386,0.00813484,0.00068746,0.002
 39436,-0.00064150,-0.00012392,-0.00066885,0.00053897,-0.08718515,-0.09
 769280,-0.17318202,-0.00375951,-0.00268693,-0.00191059,0.09045040,0.10
 888586,0.20284354,-0.00000277,-0.00000211,0.00000429,0.00000078,0.0000
 0084,-0.00000101,0.00000081,-0.00000035,-0.00000076,0.00000057,-0.0000
 0046,-0.00000123,-0.00000053,-0.00000057,0.00000118,0.00000008,0.00000
 065,-0.00000053,-0.00000366,-0.00000053,0.00000626,0.00000394,0.000001
 02,-0.00000614,-0.00000026,-0.00000003,0.00000039,-0.00000065,0.000000
 14,0.00000043,0.00000217,0.00000169,-0.00000311,-0.00000033,0.00000018
 ,-0.00000020,0.00000015,0.00000002,0.00000018,-0.00000268,-0.00000048,
 0.00000423,0.00000820,0.00000619,-0.00001436,-0.00001261,-0.00002150,0
 .00002438,-0.00000247,-0.00000169,0.00000415,0.00001132,0.00002324,-0.
 00002268,-0.00000582,-0.00000698,0.00001068,0.00000059,-0.00000094,-0.
 00000055,0.00000003,0.00000016,-0.00000029,-0.00000119,0.00000105,0.00
 000180,0.00000021,0.00000099,-0.00000086,-0.00000358,-0.00000820,0.000
 00819,0.00000179,-0.00000035,-0.00000123,0.00000308,-0.00000288,-0.000
 00666,-0.00000103,-0.00000313,0.00000356,0.00000043,0.00000104,-0.0000
 0231,-0.00001513,-0.00000028,0.00002610,0.00001287,0.00000495,-0.00002
 237,-0.00000118,0.00000007,0.00000176,-0.00000114,0.00000015,0.0000018
 7,-0.00001176,-0.00000056,0.00001821,0.00003402,0.00002468,-0.00005932
 ,0.00000804,0.00000786,-0.00001476,-0.00000015,0.00000041,0.00000084,-
 0.00000084,0.00000017,0.00000053,-0.00006283,-0.00012098,0.00012405,-0
 .00001024,-0.00000955,0.00001793,0.00004931,0.00013848,-0.00010416,-0.
 00002176,-0.00002942,0.00004035,0.00000148,-0.00000302,-0.00000100,-0.
 00000049,-0.00000069,-0.00000015,-0.00000540,0.00000666,0.00000836,0.0
 0000128,0.00000288,-0.00000412,-0.00001170,-0.00005521,0.00003366,0.00
 006284,0.00006061,0.00001441,-0.00000822,-0.00003858,-0.00016771,0.000
 01374,-0.00005130,0.00001809,-0.00000535,0.00000285,-0.00001521,-0.000
 11524,0.00002419,0.00020092,0.00008074,0.00002432,-0.00014099,-0.00000
 866,0.00000094,0.00001446,-0.00000798,-0.00000014,0.00001337,-0.000103
 22,-0.00001004,0.00016749,0.00025442,0.00013966,-0.00045156,0.00003567
 ,0.00004937,-0.00007446,-0.00000482,0.00000074,0.00000263,0.00000065,0
 .00000319,0.00000522,0.00145098,-0.00520728,0.00222843,-0.00015730,-0.
 00040908,0.00007641,0.00028084,0.00341463,-0.00028067,-0.00014916,-0.0
 0019286,0.00027337,0.00001609,-0.00006520,0.00003028,-0.00001304,-0.00
 000457,0.00001501,-0.00010667,0.00011544,0.00013198,0.00000003,0.00001
 620,-0.00003252,0.00024349,-0.00139981,-0.00014861,-0.00669204,-0.0018
 8327,0.01360532,-0.00024041,0.00156825,-0.00075129,0.00131762,-0.00161
 782,0.00033752,-0.14684719,-0.02451827,0.05725563,-0.01952003,-0.00508
 773,0.03873562,0.01083442,0.00286632,-0.00873338,0.32672096,-0.0000025
 7,-0.00000087,0.00000351,0.00000077,0.00000024,-0.00000085,-0.00000009
 ,-0.00000043,0.00000017,0.00000085,-0.00000056,-0.00000106,-0.00000020
 ,-0.00000042,0.00000027,0.00000021,0.00000023,-0.00000021,-0.00000435,
 0.00000193,0.00000598,0.00000326,0.00000030,-0.00000449,-0.00000011,-0
 .00000007,0.00000031,-0.00000061,0.00000011,0.00000024,0.00000201,0.00
 000087,-0.00000256,-0.00000035,0.00000014,-0.00000024,0.00000024,0.,0.
 00000025,-0.00000251,-0.00000045,0.00000382,0.00000815,0.00000173,-0.0
 0001253,-0.00001106,-0.00001405,0.00001918,-0.00000241,-0.00000137,0.0
 0000375,0.00001185,0.00001349,-0.00002002,-0.00000486,-0.00000382,0.00
 000796,-0.00000004,-0.00000028,0.00000008,0.00000025,-0.00000004,-0.00
 000025,-0.00000074,0.00000101,0.00000080,0.00000047,0.00000060,-0.0000
 0072,-0.00000546,-0.00000300,0.00000848,-0.00000156,-0.00000173,0.0000
 0230,0.00000462,-0.00000360,-0.00000603,-0.00000030,-0.00000212,0.0000
 0017,0.00000063,0.00000014,-0.00000063,-0.00001787,0.00000840,0.000025
 66,0.00001159,0.00000253,-0.00001793,-0.00000133,-0.00000004,0.0000012
 7,-0.00000066,-0.00000008,0.00000162,-0.00001151,-0.00000165,0.0000184
 3,0.00003462,0.00000895,-0.00005467,0.00000738,0.00000488,-0.00001154,
 0.00000028,0.00000021,0.00000066,-0.00000093,0.00000024,-0.00000010,-0
 .00006366,-0.00009298,0.00011177,-0.00001023,-0.00000889,0.00001730,0.
 00005694,0.00009748,-0.00010231,-0.00001931,-0.00001844,0.00003269,-0.
 00000052,-0.00000094,0.00000082,0.00000039,-0.00000072,-0.00000023,-0.
 00000432,0.00000669,0.00000484,0.00000247,0.00000247,-0.00000384,-0.00
 002338,-0.00003137,0.00003957,-0.00007486,-0.00019034,0.00015882,0.000
 02967,-0.00011159,-0.00001839,0.00002715,0.00005564,-0.00003978,-0.000
 02118,-0.00000669,0.00003742,-0.00017198,0.00012938,0.00024181,0.00008
 617,0.00001583,-0.00013043,-0.00000796,-0.00000167,0.00001520,-0.00001
 064,-0.00000156,0.00001375,-0.00016442,-0.00006904,0.00024375,0.000336
 92,0.00001951,-0.00052585,0.00004066,0.00003827,-0.00006529,-0.0000057
 6,0.00000149,-0.00000143,0.00000322,0.00000202,0.00000451,-0.00379563,
 -0.01136165,0.00864029,-0.00014594,-0.00099224,0.00026339,-0.00046482,
 0.00483932,0.00041980,-0.00015623,-0.00013288,0.00025953,-0.00002423,-
 0.00005186,0.00006615,-0.00002144,-0.00000182,0.00003579,-0.00020405,0
 .00027223,0.00025501,0.00003893,0.00003942,-0.00006708,0.00031899,-0.0
 0121604,-0.00030697,-0.02026509,0.00494116,0.02665392,0.00055498,0.002
 91559,-0.00044972,0.00010844,0.00282018,-0.00106924,-0.01405259,-0.069
 16598,-0.00574926,0.00489365,0.00494019,-0.01020532,0.01164418,0.00492
 771,-0.01511086,0.14362723,0.14620944,0.00000588,0.00000419,-0.0000083
 6,-0.00000160,-0.00000182,0.00000194,-0.00000092,0.00000083,0.00000093
 ,-0.00000190,0.00000098,0.00000229,0.00000123,0.00000131,-0.00000196,-
 0.00000077,-0.00000083,0.00000084,0.00000889,0.00000075,-0.00001250,-0
 .00000866,-0.00000194,0.00001091,0.00000077,0.00000049,-0.00000030,0.0
 0000167,-0.00000058,-0.00000091,-0.00000547,-0.00000334,0.00000554,0.0
 0000118,-0.00000063,0.00000043,-0.00000013,0.00000043,0.00000015,0.000
 00529,0.00000102,-0.00000820,-0.00001747,-0.00001286,0.00002901,0.0000
 2618,0.00004269,-0.00004716,0.00000558,0.00000353,-0.00000886,-0.00002
 515,-0.00004713,0.00004621,0.00001175,0.00001412,-0.00002052,-0.000000
 41,0.00000114,0.00000097,-0.00000055,0.00000009,0.00000023,0.00000257,
 -0.00000210,-0.00000330,-0.00000115,-0.00000147,0.00000156,0.00000975,
 0.00001617,-0.00001661,-0.00000056,0.00000176,0.00000118,-0.00000960,0
 .00000604,0.00001236,0.00000239,0.00000648,-0.00000458,-0.00000238,-0.
 00000179,0.00000313,0.00003518,-0.00000145,-0.00005277,-0.00002845,-0.
 00000971,0.00004279,0.00000302,-0.00000047,-0.00000337,0.00000237,0.00
 000013,-0.00000341,0.00002479,0.00000144,-0.00003810,-0.00007373,-0.00
 004721,0.00012156,-0.00001774,-0.00001520,0.00002786,0.00000038,-0.000
 00047,-0.00000159,0.00000223,-0.00000093,-0.00000059,0.00013837,0.0002
 4245,-0.00024956,0.00002232,0.00001954,-0.00003720,-0.00011222,-0.0002
 7507,0.00021461,0.00004577,0.00005774,-0.00007983,-0.00000094,0.000005
 31,0.00000127,-0.00000054,0.00000133,-0.00000023,0.00001151,-0.0000137
 3,-0.00001514,-0.00000487,-0.00000592,0.00000747,0.00003619,0.00010699
 ,-0.00006897,0.00002747,-0.00004698,0.00000060,-0.00017950,0.00008157,
 0.00019567,0.00000424,0.00008512,0.00000126,-0.00000706,-0.00000444,0.
 00000078,0.00028701,-0.00008643,-0.00041741,-0.00017999,-0.00004865,0.
 00028203,0.00001769,0.00000055,-0.00002811,0.00001992,-0.00000053,-0.0
 0002820,0.00023812,0.00003616,-0.00037181,-0.00059645,-0.00024287,0.00
 094530,-0.00008724,-0.00010016,0.00014461,0.00001143,-0.00000406,-0.00
 000205,-0.00000119,-0.00000345,-0.00001069,0.00276846,0.01185598,-0.00
 411019,0.00007611,0.00087508,-0.00040933,0.00019961,-0.00684930,0.0012
 9220,0.00032332,0.00037857,-0.00055419,0.00002874,0.00011982,-0.000040
 80,0.00002097,0.00000916,-0.00003787,0.00020119,-0.00027678,-0.0003005
 2,-0.00004552,-0.00004500,0.00006006,-0.00036357,0.00274509,0.00020101
 ,0.01587019,-0.00078365,-0.02401801,0.00078299,0.00058697,0.00267472,-
 0.00124554,-0.00146707,0.00038736,0.09921212,0.01534202,-0.20313897,0.
 01123049,-0.00185999,-0.00566863,0.02143393,0.00318452,-0.03404850,0.0
 6279934,0.14274961,0.59200640,0.00000052,0.00000034,-0.00000072,-0.000
 00026,-0.00000008,0.00000013,-0.00000012,-0.00000028,0.00000033,0.0000
 0010,0.00000021,0.00000009,-0.00000002,-0.00000004,-0.00000005,0.00000
 010,-0.00000018,0.00000015,0.00000028,-0.00000006,-0.00000102,-0.00000
 009,-0.00000006,0.00000127,-0.00000010,-0.00000024,-0.00000039,-0.0000
 0015,0.00000019,-0.00000005,0.00000014,-0.00000040,0.00000098,-0.00000
 031,0.00000016,0.,-0.00000012,-0.00000024,-0.00000036,0.00000034,-0.00
 000003,-0.00000072,-0.00000116,-0.00000088,0.00000211,0.00000156,0.000
 00331,-0.00000348,0.00000005,0.00000011,-0.00000022,-0.00000111,-0.000
 00345,0.00000272,0.00000098,0.00000138,-0.00000175,-0.00000025,0.00000
 026,0.00000007,0.00000014,0.,0.00000009,0.00000011,-0.00000013,-0.0000
 0028,0.00000011,-0.00000021,0.00000017,-0.00000005,0.00000127,-0.00000
 096,-0.00000097,-0.00000033,0.00000061,0.00000042,0.00000039,0.0000005
 6,0.00000030,0.00000030,-0.00000091,0.00000008,-0.00000013,0.00000061,
 0.00000078,0.00000083,-0.00000261,-0.00000078,-0.00000071,0.00000316,-
 0.00000004,0.00000012,-0.00000023,-0.00000001,-0.00000020,-0.00000041,
 0.00000102,-0.00000031,-0.00000146,-0.00000281,-0.00000413,0.00000575,
 -0.00000049,-0.00000104,0.00000219,-0.00000009,-0.00000018,-0.00000027
 ,-0.00000007,0.00000016,-0.00000021,0.00000306,0.00001048,-0.00001009,
 0.00000066,0.00000037,-0.00000121,-0.00000227,-0.00001281,0.00000811,0
 .00000216,0.00000420,-0.00000484,-0.00000074,0.00000043,0.00000040,0.0
 0000037,0.00000029,0.00000004,0.00000050,-0.00000034,-0.00000117,0.000
 00023,-0.00000014,0.00000058,-0.00000130,0.00000568,-0.00000262,-0.000
 01098,0.00000052,0.00000055,0.00002656,0.00000311,0.00000614,-0.000003
 95,0.00000028,-0.00000230,0.00000261,-0.00000020,0.00000621,-0.0000049
 3,0.00000929,-0.00000562,-0.00000212,-0.00000249,0.00000871,0.00000006
 ,-0.00000064,-0.00000100,-0.00000028,0.00000028,-0.00000028,-0.0000070
 2,-0.00000210,-0.00000141,0.00000458,-0.00002042,0.00001486,0.00000066
 ,-0.00000336,0.00000730,-0.00000017,0.00000031,-0.00000092,0.00000007,
 -0.00000095,-0.00000049,-0.00044675,-0.00042453,0.00010217,-0.00001610
 ,-0.00002785,0.00000403,0.00007302,0.00002085,0.00003733,0.00000373,0.
 00001501,-0.00001472,-0.00000390,0.00000092,0.00000325,0.00000165,0.00
 000015,0.00000218,-0.00000834,0.00000310,0.00000151,0.00000738,0.00000
 005,0.00000010,-0.00006736,-0.00001511,0.00000286,0.00031371,0.0010783
 8,0.00064236,-0.00004767,-0.00056613,-0.00042868,-0.00018819,-0.000043
 59,-0.00038877,0.01002371,0.01072051,0.02717851,0.00058840,0.00089173,
 0.00092699,-0.00160141,-0.00020169,0.00442466,-0.16729412,-0.12207941,
 -0.21293731,0.15865646,0.00000115,0.00000018,-0.00000136,-0.00000046,0
 .00000002,0.00000030,0.00000023,0.00000004,-0.00000009,-0.00000030,0.0
 0000031,0.00000032,-0.00000003,0.00000006,0.00000011,-0.00000007,-0.00
 000005,0.00000008,0.00000171,-0.00000116,-0.00000239,-0.00000093,0.000
 00008,0.00000176,-0.00000006,-0.00000014,-0.00000031,0.00000009,0.0000
 0009,-0.00000005,-0.00000052,-0.00000033,0.00000129,-0.00000010,0.0000
 0008,0.00000009,-0.00000015,-0.00000015,-0.00000031,0.00000095,0.00000
 010,-0.00000150,-0.00000326,-0.00000005,0.00000475,0.00000397,0.000004
 30,-0.00000655,0.00000077,0.00000040,-0.00000128,-0.00000445,-0.000003
 63,0.00000715,0.00000189,0.00000126,-0.00000288,0.00000007,0.00000005,
 -0.00000017,-0.00000006,0.00000008,0.00000011,0.00000014,-0.00000041,-
 0.00000012,-0.00000017,-0.00000020,0.00000028,0.00000220,0.00000033,-0
 .00000324,0.00000086,0.00000057,-0.00000095,-0.00000154,0.00000127,0.0
 0000171,0.00000016,0.00000046,0.00000027,-0.00000031,0.00000004,0.0000
 0011,0.00000644,-0.00000388,-0.00000873,-0.00000374,-0.00000060,0.0000
 0597,0.00000041,0.00000010,-0.00000038,0.00000005,-0.00000004,-0.00000
 064,0.00000361,0.00000051,-0.00000627,-0.00001183,-0.00000133,0.000018
 14,-0.00000242,-0.00000133,0.00000400,-0.00000025,-0.00000010,-0.00000
 034,0.00000024,0.,0.00000007,0.00001913,0.00002309,-0.00003199,0.00000
 311,0.00000231,-0.00000556,-0.00001896,-0.00002195,0.00003243,0.000006
 44,0.00000523,-0.00001049,0.00000029,0.00000002,-0.00000037,-0.0000002
 2,0.00000039,0.00000013,0.00000119,-0.00000193,-0.00000109,-0.00000093
 ,-0.00000064,0.00000129,0.00000913,0.00000488,-0.00001401,0.00003134,0
 .00004361,-0.00004740,-0.00002159,0.00002704,0.00000072,-0.00000265,-0
 .00000802,0.00000633,0.00000290,0.00000206,-0.00001021,0.00005028,-0.0
 0004087,-0.00006584,-0.00002311,-0.00000313,0.00003556,0.00000165,0.00
 000047,-0.00000421,0.00000304,0.00000064,-0.00000329,0.00005418,0.0000
 1304,-0.00005679,-0.00010007,0.00000547,0.00013591,-0.00001276,-0.0000
 0910,0.00001842,0.00000160,-0.00000033,0.00000080,-0.00000141,-0.00000
 053,-0.00000128,-0.00011495,-0.00082881,-0.00072657,0.00007062,0.00001
 565,-0.00001653,-0.00044647,-0.00011607,0.00048764,0.00004212,0.000029
 39,-0.00006715,-0.00000334,-0.00001258,-0.00001161,0.00000089,0.000001
 58,-0.00000241,0.00003256,-0.00003350,-0.00000700,-0.00001018,-0.00001
 359,0.00002028,0.00013370,-0.00003954,-0.00037313,0.00107302,0.0028791
 5,0.00370112,-0.00087256,-0.00055345,-0.00062042,0.00003214,-0.0002290
 0,0.00011974,0.00057064,-0.00098331,0.00417869,-0.00076435,0.00002235,
 -0.00001022,0.00100081,0.00042872,-0.00020152,-0.11138165,-0.08882874,
 -0.16632317,0.11064009,0.08822307,-0.00000158,-0.00000125,0.00000236,0
 .00000036,0.00000059,-0.00000057,0.00000026,-0.00000039,-0.00000009,0.
 00000061,-0.00000022,-0.00000069,-0.00000040,-0.00000042,0.00000066,0.
 00000031,0.00000011,-0.00000025,-0.00000261,-0.00000054,0.00000347,0.0
 0000271,0.00000060,-0.00000278,-0.00000033,-0.00000029,-0.00000014,-0.
 00000062,0.00000029,0.00000029,0.00000186,0.00000094,-0.00000128,-0.00
 000055,0.00000029,-0.00000013,-0.00000005,-0.00000029,-0.00000028,-0.0
 0000144,-0.00000029,0.00000216,0.00000484,0.00000427,-0.00000827,-0.00
 000729,-0.00001218,0.00001312,-0.00000174,-0.00000103,0.00000277,0.000
 00718,0.00001392,-0.00001340,-0.00000320,-0.00000418,0.00000576,-0.000
 00003,-0.00000017,-0.00000027,0.00000023,-0.00000010,0.,-0.00000074,0.
 00000059,0.00000095,0.00000043,0.00000029,-0.00000044,-0.00000293,-0.0
 0000487,0.00000475,-0.00000029,-0.00000076,-0.00000007,0.00000287,-0.0
 0000163,-0.00000354,-0.00000049,-0.00000179,0.00000107,0.00000068,0.00
 000048,-0.00000077,-0.00001007,0.00000010,0.00001491,0.00000839,0.0000
 0279,-0.00001171,-0.00000097,0.00000024,0.00000092,-0.00000075,-0.0000
 0013,0.00000084,-0.00000692,-0.00000058,0.00001084,0.00002095,0.000013
 76,-0.00003468,0.00000519,0.00000425,-0.00000767,-0.00000016,0.0000001
 0,0.00000038,-0.00000075,0.00000039,0.00000011,-0.00003924,-0.00006727
 ,0.00007008,-0.00000644,-0.00000546,0.00001077,0.00003226,0.00007636,-
 0.00006128,-0.00001300,-0.00001636,0.00002246,-0.00000006,-0.00000136,
 -0.00000024,0.00000031,-0.00000030,0.00000004,-0.00000318,0.00000389,0
 .00000417,0.00000150,0.00000170,-0.00000208,-0.00001112,-0.00002933,0.
 00001996,-0.00000115,-0.00002175,0.00003995,0.00001953,-0.00003668,-0.
 00004374,0.00000419,-0.00001030,-0.00000408,-0.00000133,0.00000032,0.0
 0000319,-0.00008199,0.00003014,0.00011929,0.00005102,0.00001373,-0.000
 07780,-0.00000500,-0.00000041,0.00000784,-0.00000571,0.00000018,0.0000
 0781,-0.00007593,-0.00001526,0.00010807,0.00017040,0.00006213,-0.00027
 036,0.00002572,0.00002731,-0.00004023,-0.00000345,0.00000124,0.0000003
 6,0.00000044,0.00000089,0.00000286,-0.00042501,-0.00131424,0.00197967,
 -0.00010002,-0.00016318,0.00007746,0.00036212,0.00146174,-0.00054341,-
 0.00008999,-0.00010221,0.00015288,-0.00000271,-0.00001485,0.00001446,-
 0.00000428,-0.00000274,0.00000959,-0.00005365,0.00007529,0.00006060,0.
 00001410,0.00001741,-0.00002275,-0.00003483,-0.00054657,0.00013003,-0.
 00069597,0.00051656,-0.00119885,0.00026647,0.00113739,-0.00015781,0.00
 001175,0.00002503,0.00007221,-0.01909690,-0.01569941,-0.03040420,-0.00
 024581,-0.00058496,0.00263358,0.00481095,0.00169496,-0.00322282,-0.165
 20466,-0.14639079,-0.32485595,0.18041770,0.15986425,0.35537992\\-0.000
 00023,0.00000293,0.00000231,-0.00000094,-0.00000264,-0.00000073,0.0000
 0091,-0.00000070,-0.00000152,-0.00000091,0.00000005,0.00000003,-0.0000
 0165,-0.00000171,0.00000151,-0.00000057,0.00000040,-0.00000108,-0.0000
 0043,-0.00000088,-0.00000010,-0.00000207,-0.00000118,0.00000056,-0.000
 00042,-0.00000025,0.00000081,-0.00000036,-0.00000016,-0.00000017,0.000
 00055,0.00000041,-0.00000037,0.00000040,-0.00000034,-0.00000025,-0.000
 00019,0.00000032,-0.00000015,0.00000201,-0.00000182,-0.00000295,-0.000
 00180,0.00000241,-0.00000195,0.00000214,0.00000087,0.00000104,-0.00000
 055,0.00000212,0.00000371,-0.00000526,-0.00000477,-0.00000241,0.000002
 26,0.00000017,-0.00000058,-0.00000105,0.00000102,0.00000178,0.00000065
 ,0.00000002,-0.00000016,0.00000134,0.00000164,-0.00000150,0.00000044,-
 0.00000031,0.00000106,0.00000294,0.00000273,0.00000115,0.00000102,-0.0
 0000074,-0.00000156,-0.00000093,0.00000002,0.00000004,-0.00000163,-0.0
 0000162,0.00000152,-0.00000044,0.00000036,-0.00000102,-0.00000395,-0.0
 0000267,-0.00000187,0.00000052,-0.00000059,-0.00000103,-0.00000098,-0.
 00000035,-0.00000033,-0.00000045,0.00000048,0.00000046,-0.00000058,-0.
 00000228,-0.00000447,0.00000786,0.00000504,0.00000423,-0.00000113,0.00
 000054,0.00000074,0.00000028,-0.00000062,-0.00000012,0.00000116,0.0000
 0050,0.00000009,-0.00000144,0.00000047,-0.00000110,-0.00000437,0.00000
 164,0.00000130,0.00000781,-0.00000345,0.00000583,-0.00000266,-0.000000
 84,-0.00000158,-0.00000067,0.00000086,0.00000185,0.00000066,-0.0000000
 4,-0.00000019,0.00000140,0.00000167,-0.00000173,0.00000055,-0.00000035
 ,0.00000109,-0.00000209,0.00000213,-0.00000196,0.00000110,-0.00000079,
 -0.00000186,-0.00000082,0.00000006,0.00000007,-0.00000158,-0.00000171,
 0.00000158,-0.00000037,0.00000037,-0.00000100,-0.00000490,-0.00000300,
 -0.00000245,0.00000037,-0.00000057,-0.00000130,-0.00000039,0.00000039,
 0.00000061,-0.00000080,-0.00000029,-0.00000037,-0.00000151,-0.00000213
 ,-0.00000492,0.00001060,0.00000531,0.00000599,-0.00000140,0.00000050,0
 .00000044,0.00000132,0.00000055,0.00000019,0.00000051,-0.00000064,-0.0
 0000002,-0.00000128,0.00000007,0.00000072,-0.00000516,0.00000122,0.000
 00060,0.00001005,-0.00000184,0.00000752,-0.00000327,-0.00000087,-0.000
 00174,-0.00000048,0.00000060,0.00000196,0.00000074,-0.00000006,-0.0000
 0018,0.00000152,0.00000173,-0.00000181,0.00000065,-0.00000041,0.000001
 13,-0.00000346,0.00000049,-0.00000235,-0.00000191,0.00000137,-0.000002
 31,0.00000108,-0.00000075,0.00000035,0.00000162,0.00000134,0.00000034,
 0.00000013,-0.00000193,-0.00000009,-0.00000041,-0.00000003,-0.00000054
 ,-0.00000028,-0.00000001,0.00000036,0.00000078,0.00000232,-0.00000082,
 0.00000040,-0.00000176,-0.00000032\\\@


 NATURE WILL TELL YOU A DIRECT LIE IF SHE CAN.

                                -- CHARLES DARWIN
 Job cpu time:       4 days 12 hours 14 minutes 34.4 seconds.
 Elapsed time:       0 days  3 hours  0 minutes 29.6 seconds.
 File lengths (MBytes):  RWF=  11154 Int=      0 D2E=      0 Chk=    152 Scr=      1
 Normal termination of Gaussian 16 at Fri Jun 21 16:38:40 2019.
