 Entering Gaussian System, Link 0=g16
 Initial command:
 /nopt/nrel/apps/gaussian/g16B/g16/l1.exe "/dev/shm/Gau-37424.inp" -scrdir="/dev/shm/"
 Default linda workers: r1i1n0
 Default is to use  36 SMP processors on each worker.
 Entering Link 1 = /nopt/nrel/apps/gaussian/g16B/g16/l1.exe PID=     37426.
  
 Copyright (c) 1988-2017, Gaussian, Inc.  All Rights Reserved.
  
 This is part of the Gaussian(R) 16 program.  It is based on
 the Gaussian(R) 09 system (copyright 2009, Gaussian, Inc.),
 the Gaussian(R) 03 system (copyright 2003, Gaussian, Inc.),
 the Gaussian(R) 98 system (copyright 1998, Gaussian, Inc.),
 the Gaussian(R) 94 system (copyright 1995, Gaussian, Inc.),
 the Gaussian 92(TM) system (copyright 1992, Gaussian, Inc.),
 the Gaussian 90(TM) system (copyright 1990, Gaussian, Inc.),
 the Gaussian 88(TM) system (copyright 1988, Gaussian, Inc.),
 the Gaussian 86(TM) system (copyright 1986, Carnegie Mellon
 University), and the Gaussian 82(TM) system (copyright 1983,
 Carnegie Mellon University). Gaussian is a federally registered
 trademark of Gaussian, Inc.
  
 This software contains proprietary and confidential information,
 including trade secrets, belonging to Gaussian, Inc.
  
 This software is provided under written license and may be
 used, copied, transmitted, or stored only in accord with that
 written license.
  
 The following legend is applicable only to US Government
 contracts under FAR:
  
                    RESTRICTED RIGHTS LEGEND
  
 Use, reproduction and disclosure by the US Government is
 subject to restrictions as set forth in subparagraphs (a)
 and (c) of the Commercial Computer Software - Restricted
 Rights clause in FAR 52.227-19.
  
 Gaussian, Inc.
 340 Quinnipiac St., Bldg. 40, Wallingford CT 06492
  
  
 ---------------------------------------------------------------
 Warning -- This program may not be used in any manner that
 competes with the business of Gaussian, Inc. or will provide
 assistance to any competitor of Gaussian, Inc.  The licensee
 of this program is prohibited from giving any competitor of
 Gaussian, Inc. access to this program.  By using this program,
 the user acknowledges that Gaussian, Inc. is engaged in the
 business of creating and licensing software in the field of
 computational chemistry and represents and warrants to the
 licensee that it is not a competitor of Gaussian, Inc. and that
 it will not use this program in any manner prohibited above.
 ---------------------------------------------------------------
  

 Cite this work as:
 Gaussian 16, Revision B.01,
 M. J. Frisch, G. W. Trucks, H. B. Schlegel, G. E. Scuseria, 
 M. A. Robb, J. R. Cheeseman, G. Scalmani, V. Barone, 
 G. A. Petersson, H. Nakatsuji, X. Li, M. Caricato, A. V. Marenich, 
 J. Bloino, B. G. Janesko, R. Gomperts, B. Mennucci, H. P. Hratchian, 
 J. V. Ortiz, A. F. Izmaylov, J. L. Sonnenberg, D. Williams-Young, 
 F. Ding, F. Lipparini, F. Egidi, J. Goings, B. Peng, A. Petrone, 
 T. Henderson, D. Ranasinghe, V. G. Zakrzewski, J. Gao, N. Rega, 
 G. Zheng, W. Liang, M. Hada, M. Ehara, K. Toyota, R. Fukuda, 
 J. Hasegawa, M. Ishida, T. Nakajima, Y. Honda, O. Kitao, H. Nakai, 
 T. Vreven, K. Throssell, J. A. Montgomery, Jr., J. E. Peralta, 
 F. Ogliaro, M. J. Bearpark, J. J. Heyd, E. N. Brothers, K. N. Kudin, 
 V. N. Staroverov, T. A. Keith, R. Kobayashi, J. Normand, 
 K. Raghavachari, A. P. Rendell, J. C. Burant, S. S. Iyengar, 
 J. Tomasi, M. Cossi, J. M. Millam, M. Klene, C. Adamo, R. Cammi, 
 J. W. Ochterski, R. L. Martin, K. Morokuma, O. Farkas, 
 J. B. Foresman, and D. J. Fox, Gaussian, Inc., Wallingford CT, 2016.
 
 ******************************************
 Gaussian 16:  ES64L-G16RevB.01 20-Dec-2017
                21-Jun-2019 
 ******************************************
 %Chk=/dev/shm/pet_opt.chk
 SetLPE:    new flags="-opt 'Tsnet.Node.lindarsharg: ssh'  -nodelist 'r1i1n0.ib0.cm.hpc.nrel.gov' -env GAUSS_MDEF=9663676416 -env GAUSS_EXEDIR="/nopt/nrel/apps/gaussian/g16B/g16/bsd:/nopt/nrel/apps/gaussian/g16B/g16/local:/nopt/nrel/apps/gaussian/g16B/g16/extras:/nopt/nrel/apps/gaussian/g16B/g16""
 Will use up to    1 processors via Linda.
 Default route: CacheSize=180224 MaxDisk=256GB
 -------------------------------------------------------
 # opt=(modredundant) m062x/6-311+g(2d,p) nosymm scf=xqc
 -------------------------------------------------------
 1/4=180224,18=120,19=15,26=3,38=1/1,3;
 2/4=180224,9=110,12=2,15=1,17=6,18=5,40=1/2;
 3/4=180224,5=4,6=6,7=112,11=2,25=1,30=1,71=1,74=-55/1,2,3;
 4/4=180224/1;
 5/4=180224,5=2,8=3,13=1,38=5/2,8;
 6/4=180224,7=2,8=2,9=2,10=2,28=1/1;
 7/4=180224,30=1/1,2,3,16;
 1/4=180224,18=20,19=15,26=3/3(2);
 2/4=180224,9=110,15=1/2;
 99/4=180224/99;
 2/4=180224,9=110,15=1/2;
 3/4=180224,5=4,6=6,7=112,11=2,25=1,30=1,71=1,74=-55/1,2,3;
 4/4=180224,5=5,16=3,69=1/1;
 5/4=180224,5=2,8=3,13=1,38=5/2,8;
 7/4=180224,30=1/1,2,3,16;
 1/4=180224,18=20,19=15,26=3/3(-5);
 2/4=180224,9=110,15=1/2;
 6/4=180224,7=2,8=2,9=2,10=2,19=2,28=1/1;
 99/4=180224,9=1/99;
 ---------------------------------------------------
 pet trimer from Brandon, opt with m062x/6-31+g(d,p)
 ---------------------------------------------------
 Symbolic Z-matrix:
 Charge =  0 Multiplicity = 1
 O                     3.3265    6.40173  -1.45243 
 H                     4.25558   6.20024  -1.29651 
 C                    -0.37615   2.45979   4.97025 
 H                    -0.60273   1.5306    5.48026 
 C                     0.38045   2.46112   3.80459 
 H                     0.76073   1.53863   3.37872 
 O                     1.91087   2.58574   1.42813 
 C                     2.47017   4.83546   0.16993 
 H                     1.962     4.2556   -0.60556 
 H                     3.4448    4.37185   0.35991 
 C                     2.60914   6.29208  -0.2407 
 H                     1.62034   6.71882  -0.42489 
 H                     3.08005   6.8659    0.56814 
 C                     0.6635    3.66688   3.15942 
 C                     1.482     3.60729   1.91075 
 O                    -1.8793    2.51548   7.2739 
 C                    -0.84827   3.66945   5.48734 
 C                    -1.66432   3.72998   6.73576 
 O                     1.69707   4.81984   1.37482 
 C                     0.19078   4.87628   3.67627 
 H                     0.41708   5.80478   3.16494 
 C                    -0.56581   4.87536   4.84191 
 H                    -0.9465    5.79798   5.26716 
 O                    -2.09244   4.74888   7.22365 
 C                    -5.60292  -1.31658   13.68209 
 H                    -5.83306  -2.24627   14.18954 
 C                    -4.84938  -1.31524   12.51452 
 H                    -4.47502  -2.23836   12.0848 
 O                    -3.32326  -1.18825   10.1334 
 C                    -2.75874   1.05406   8.88411 
 H                    -1.77321   0.61989   9.07494 
 H                    -3.25798   0.45547   8.11695 
 C                    -4.56205  -0.10844   11.87299 
 C                    -3.74854  -0.16884   10.62246 
 C                    -2.65489   2.50748   8.47405 
 H                    -2.15674   3.10621   9.24188 
 H                    -3.64031   2.94143   8.28213 
 O                    -7.09818  -1.26066   15.99066 
 C                    -6.06717  -0.10622   14.20453 
 C                    -6.88008  -0.04582   15.45545 
 O                    -3.53283   1.04569   10.08558 
 C                    -5.02647   1.1019    12.39532 
 H                    -4.79649   2.03158   11.88775 
 C                    -5.77987   1.10058   13.56298 
 H                    -6.15415   2.02371   13.99275 
 O                    -7.30278   0.9738    15.94629 
 C                    -10.83182  -5.09582   22.39137 
 H                    -11.0666  -6.02559   22.89654 
 C                    -10.07708  -5.09426   21.22454 
 H                    -9.70567  -6.01756   20.79263 
 O                    -8.54776  -4.96589   18.84474 
 C                    -7.97887  -2.72316   17.59988 
 H                    -8.4801   -3.31884   16.83171 
 H                    -6.99433  -3.16033   17.78909 
 C                    -9.78498  -3.88685   20.58621 
 C                    -8.97118  -3.94678   19.3363 
 C                    -7.87148  -1.26921   17.19263 
 H                    -8.85596  -0.83198   17.00342 
 H                    -7.36997  -0.67346   17.96054 
 O                    -12.32367  -5.03969   24.70197 
 C                    -11.29276  -3.88554   22.91672 
 C                    -12.10742  -3.82651   24.16793 
 O                    -8.75221  -2.73153   18.80148 
 C                    -10.24615  -2.6764    21.11125 
 H                    -10.01296  -1.74614   20.60619 
 C                    -11.00091  -2.67837   22.27811 
 H                    -11.37327  -1.75534   22.70977 
 O                    -12.52859  -2.80454   24.65638 
 C                    -13.10558  -5.05771   25.90112 
 H                    -12.62035  -4.43171   26.65845 
 H                    -14.09906  -4.64564   25.7034 
 C                    -13.19467  -6.50936   26.34217 
 H                    -12.18664  -6.91668   26.49463 
 H                    -13.68312  -7.10141   25.5646 
 O                    -13.99343  -6.63009   27.50074 
 H                    -13.5188  -6.2715    28.25854 
 
 The following ModRedundant input section has been read:
 

 GradGradGradGradGradGradGradGradGradGradGradGradGradGradGradGradGradGrad
 Berny optimization.
 Initialization pass.
                           ----------------------------
                           !    Initial Parameters    !
                           ! (Angstroms and Degrees)  !
 --------------------------                            --------------------------
 ! Name  Definition              Value          Derivative Info.                !
 --------------------------------------------------------------------------------
 ! R1    R(1,2)                  0.9634         estimate D2E/DX2                !
 ! R2    R(1,11)                 1.4124         estimate D2E/DX2                !
 ! R3    R(3,4)                  1.0839         estimate D2E/DX2                !
 ! R4    R(3,5)                  1.3897         estimate D2E/DX2                !
 ! R5    R(3,17)                 1.3977         estimate D2E/DX2                !
 ! R6    R(5,6)                  1.0849         estimate D2E/DX2                !
 ! R7    R(5,14)                 1.3965         estimate D2E/DX2                !
 ! R8    R(7,15)                 1.2085         estimate D2E/DX2                !
 ! R9    R(8,9)                  1.0936         estimate D2E/DX2                !
 ! R10   R(8,10)                 1.0959         estimate D2E/DX2                !
 ! R11   R(8,11)                 1.5198         estimate D2E/DX2                !
 ! R12   R(8,19)                 1.4317         estimate D2E/DX2                !
 ! R13   R(11,12)                1.0926         estimate D2E/DX2                !
 ! R14   R(11,13)                1.0978         estimate D2E/DX2                !
 ! R15   R(14,15)                1.4942         estimate D2E/DX2                !
 ! R16   R(14,20)                1.3976         estimate D2E/DX2                !
 ! R17   R(15,19)                1.343          estimate D2E/DX2                !
 ! R18   R(16,18)                1.3457         estimate D2E/DX2                !
 ! R19   R(16,35)                1.429          estimate D2E/DX2                !
 ! R20   R(17,18)                1.4927         estimate D2E/DX2                !
 ! R21   R(17,22)                1.3966         estimate D2E/DX2                !
 ! R22   R(18,24)                1.2081         estimate D2E/DX2                !
 ! R23   R(20,21)                1.0839         estimate D2E/DX2                !
 ! R24   R(20,22)                1.3897         estimate D2E/DX2                !
 ! R25   R(22,23)                1.0849         estimate D2E/DX2                !
 ! R26   R(25,26)                1.0839         estimate D2E/DX2                !
 ! R27   R(25,27)                1.3896         estimate D2E/DX2                !
 ! R28   R(25,39)                1.3977         estimate D2E/DX2                !
 ! R29   R(27,28)                1.0849         estimate D2E/DX2                !
 ! R30   R(27,33)                1.3966         estimate D2E/DX2                !
 ! R31   R(29,34)                1.208          estimate D2E/DX2                !
 ! R32   R(30,31)                1.0937         estimate D2E/DX2                !
 ! R33   R(30,32)                1.0937         estimate D2E/DX2                !
 ! R34   R(30,35)                1.5137         estimate D2E/DX2                !
 ! R35   R(30,41)                1.4293         estimate D2E/DX2                !
 ! R36   R(33,34)                1.4931         estimate D2E/DX2                !
 ! R37   R(33,42)                1.3977         estimate D2E/DX2                !
 ! R38   R(34,41)                1.3453         estimate D2E/DX2                !
 ! R39   R(35,36)                1.0937         estimate D2E/DX2                !
 ! R40   R(35,37)                1.0937         estimate D2E/DX2                !
 ! R41   R(38,40)                1.3453         estimate D2E/DX2                !
 ! R42   R(38,57)                1.4293         estimate D2E/DX2                !
 ! R43   R(39,40)                1.4931         estimate D2E/DX2                !
 ! R44   R(39,44)                1.3966         estimate D2E/DX2                !
 ! R45   R(40,46)                1.208          estimate D2E/DX2                !
 ! R46   R(42,43)                1.0839         estimate D2E/DX2                !
 ! R47   R(42,44)                1.3896         estimate D2E/DX2                !
 ! R48   R(44,45)                1.0849         estimate D2E/DX2                !
 ! R49   R(47,48)                1.0839         estimate D2E/DX2                !
 ! R50   R(47,49)                1.3897         estimate D2E/DX2                !
 ! R51   R(47,61)                1.3976         estimate D2E/DX2                !
 ! R52   R(49,50)                1.0849         estimate D2E/DX2                !
 ! R53   R(49,55)                1.3966         estimate D2E/DX2                !
 ! R54   R(51,56)                1.2081         estimate D2E/DX2                !
 ! R55   R(52,53)                1.0937         estimate D2E/DX2                !
 ! R56   R(52,54)                1.0937         estimate D2E/DX2                !
 ! R57   R(52,57)                1.5137         estimate D2E/DX2                !
 ! R58   R(52,63)                1.429          estimate D2E/DX2                !
 ! R59   R(55,56)                1.4927         estimate D2E/DX2                !
 ! R60   R(55,64)                1.3977         estimate D2E/DX2                !
 ! R61   R(56,63)                1.3457         estimate D2E/DX2                !
 ! R62   R(57,58)                1.0937         estimate D2E/DX2                !
 ! R63   R(57,59)                1.0937         estimate D2E/DX2                !
 ! R64   R(60,62)                1.343          estimate D2E/DX2                !
 ! R65   R(60,69)                1.4317         estimate D2E/DX2                !
 ! R66   R(61,62)                1.4942         estimate D2E/DX2                !
 ! R67   R(61,66)                1.3965         estimate D2E/DX2                !
 ! R68   R(62,68)                1.2085         estimate D2E/DX2                !
 ! R69   R(64,65)                1.0839         estimate D2E/DX2                !
 ! R70   R(64,66)                1.3897         estimate D2E/DX2                !
 ! R71   R(66,67)                1.0849         estimate D2E/DX2                !
 ! R72   R(69,70)                1.0958         estimate D2E/DX2                !
 ! R73   R(69,71)                1.0936         estimate D2E/DX2                !
 ! R74   R(69,72)                1.5198         estimate D2E/DX2                !
 ! R75   R(72,73)                1.0979         estimate D2E/DX2                !
 ! R76   R(72,74)                1.0926         estimate D2E/DX2                !
 ! R77   R(72,75)                1.4124         estimate D2E/DX2                !
 ! R78   R(75,76)                0.9634         estimate D2E/DX2                !
 ! A1    A(2,1,11)             109.5559         estimate D2E/DX2                !
 ! A2    A(4,3,5)              120.618          estimate D2E/DX2                !
 ! A3    A(4,3,17)             119.8179         estimate D2E/DX2                !
 ! A4    A(5,3,17)             119.564          estimate D2E/DX2                !
 ! A5    A(3,5,6)              121.2852         estimate D2E/DX2                !
 ! A6    A(3,5,14)             119.9135         estimate D2E/DX2                !
 ! A7    A(6,5,14)             118.8013         estimate D2E/DX2                !
 ! A8    A(9,8,10)             108.1737         estimate D2E/DX2                !
 ! A9    A(9,8,11)             111.0455         estimate D2E/DX2                !
 ! A10   A(9,8,19)             109.8827         estimate D2E/DX2                !
 ! A11   A(10,8,11)            111.7768         estimate D2E/DX2                !
 ! A12   A(10,8,19)            109.2531         estimate D2E/DX2                !
 ! A13   A(11,8,19)            106.6922         estimate D2E/DX2                !
 ! A14   A(1,11,8)             110.6497         estimate D2E/DX2                !
 ! A15   A(1,11,12)            106.5408         estimate D2E/DX2                !
 ! A16   A(1,11,13)            111.9402         estimate D2E/DX2                !
 ! A17   A(8,11,12)            109.7029         estimate D2E/DX2                !
 ! A18   A(8,11,13)            109.9453         estimate D2E/DX2                !
 ! A19   A(12,11,13)           107.9539         estimate D2E/DX2                !
 ! A20   A(5,14,15)            117.5592         estimate D2E/DX2                !
 ! A21   A(5,14,20)            120.5139         estimate D2E/DX2                !
 ! A22   A(15,14,20)           121.9269         estimate D2E/DX2                !
 ! A23   A(7,15,14)            124.1836         estimate D2E/DX2                !
 ! A24   A(7,15,19)            123.1612         estimate D2E/DX2                !
 ! A25   A(14,15,19)           112.6551         estimate D2E/DX2                !
 ! A26   A(18,16,35)           115.3173         estimate D2E/DX2                !
 ! A27   A(3,17,18)            121.9497         estimate D2E/DX2                !
 ! A28   A(3,17,22)            120.5303         estimate D2E/DX2                !
 ! A29   A(18,17,22)           117.5199         estimate D2E/DX2                !
 ! A30   A(16,18,17)           112.6562         estimate D2E/DX2                !
 ! A31   A(16,18,24)           122.8929         estimate D2E/DX2                !
 ! A32   A(17,18,24)           124.4508         estimate D2E/DX2                !
 ! A33   A(8,19,15)            115.6045         estimate D2E/DX2                !
 ! A34   A(14,20,21)           119.7499         estimate D2E/DX2                !
 ! A35   A(14,20,22)           119.5894         estimate D2E/DX2                !
 ! A36   A(21,20,22)           120.6607         estimate D2E/DX2                !
 ! A37   A(17,22,20)           119.8888         estimate D2E/DX2                !
 ! A38   A(17,22,23)           118.8279         estimate D2E/DX2                !
 ! A39   A(20,22,23)           121.2833         estimate D2E/DX2                !
 ! A40   A(26,25,27)           120.6195         estimate D2E/DX2                !
 ! A41   A(26,25,39)           119.8194         estimate D2E/DX2                !
 ! A42   A(27,25,39)           119.5612         estimate D2E/DX2                !
 ! A43   A(25,27,28)           121.2723         estimate D2E/DX2                !
 ! A44   A(25,27,33)           119.8907         estimate D2E/DX2                !
 ! A45   A(28,27,33)           118.837          estimate D2E/DX2                !
 ! A46   A(31,30,32)           108.4487         estimate D2E/DX2                !
 ! A47   A(31,30,35)           111.5063         estimate D2E/DX2                !
 ! A48   A(31,30,41)           109.8181         estimate D2E/DX2                !
 ! A49   A(32,30,35)           111.5196         estimate D2E/DX2                !
 ! A50   A(32,30,41)           109.8296         estimate D2E/DX2                !
 ! A51   A(35,30,41)           105.6939         estimate D2E/DX2                !
 ! A52   A(27,33,34)           117.508          estimate D2E/DX2                !
 ! A53   A(27,33,42)           120.5481         estimate D2E/DX2                !
 ! A54   A(34,33,42)           121.9439         estimate D2E/DX2                !
 ! A55   A(29,34,33)           124.4054         estimate D2E/DX2                !
 ! A56   A(29,34,41)           122.9453         estimate D2E/DX2                !
 ! A57   A(33,34,41)           112.6493         estimate D2E/DX2                !
 ! A58   A(16,35,30)           105.6719         estimate D2E/DX2                !
 ! A59   A(16,35,36)           109.8372         estimate D2E/DX2                !
 ! A60   A(16,35,37)           109.8417         estimate D2E/DX2                !
 ! A61   A(30,35,36)           111.5117         estimate D2E/DX2                !
 ! A62   A(30,35,37)           111.5113         estimate D2E/DX2                !
 ! A63   A(36,35,37)           108.443          estimate D2E/DX2                !
 ! A64   A(40,38,57)           115.3206         estimate D2E/DX2                !
 ! A65   A(25,39,40)           121.9415         estimate D2E/DX2                !
 ! A66   A(25,39,44)           120.5482         estimate D2E/DX2                !
 ! A67   A(40,39,44)           117.5104         estimate D2E/DX2                !
 ! A68   A(38,40,39)           112.6467         estimate D2E/DX2                !
 ! A69   A(38,40,46)           122.9447         estimate D2E/DX2                !
 ! A70   A(39,40,46)           124.4086         estimate D2E/DX2                !
 ! A71   A(30,41,34)           115.3152         estimate D2E/DX2                !
 ! A72   A(33,42,43)           119.8189         estimate D2E/DX2                !
 ! A73   A(33,42,44)           119.5614         estimate D2E/DX2                !
 ! A74   A(43,42,44)           120.6197         estimate D2E/DX2                !
 ! A75   A(39,44,42)           119.8905         estimate D2E/DX2                !
 ! A76   A(39,44,45)           118.8371         estimate D2E/DX2                !
 ! A77   A(42,44,45)           121.2724         estimate D2E/DX2                !
 ! A78   A(48,47,49)           120.6607         estimate D2E/DX2                !
 ! A79   A(48,47,61)           119.7499         estimate D2E/DX2                !
 ! A80   A(49,47,61)           119.5894         estimate D2E/DX2                !
 ! A81   A(47,49,50)           121.2827         estimate D2E/DX2                !
 ! A82   A(47,49,55)           119.8889         estimate D2E/DX2                !
 ! A83   A(50,49,55)           118.8284         estimate D2E/DX2                !
 ! A84   A(53,52,54)           108.4422         estimate D2E/DX2                !
 ! A85   A(53,52,57)           111.512          estimate D2E/DX2                !
 ! A86   A(53,52,63)           109.8401         estimate D2E/DX2                !
 ! A87   A(54,52,57)           111.5063         estimate D2E/DX2                !
 ! A88   A(54,52,63)           109.8372         estimate D2E/DX2                !
 ! A89   A(57,52,63)           105.6792         estimate D2E/DX2                !
 ! A90   A(49,55,56)           117.5176         estimate D2E/DX2                !
 ! A91   A(49,55,64)           120.5306         estimate D2E/DX2                !
 ! A92   A(56,55,64)           121.9518         estimate D2E/DX2                !
 ! A93   A(51,56,55)           124.4479         estimate D2E/DX2                !
 ! A94   A(51,56,63)           122.8927         estimate D2E/DX2                !
 ! A95   A(55,56,63)           112.6595         estimate D2E/DX2                !
 ! A96   A(38,57,52)           105.6871         estimate D2E/DX2                !
 ! A97   A(38,57,58)           109.8244         estimate D2E/DX2                !
 ! A98   A(38,57,59)           109.8233         estimate D2E/DX2                !
 ! A99   A(52,57,58)           111.5105         estimate D2E/DX2                !
 ! A100  A(52,57,59)           111.5211         estimate D2E/DX2                !
 ! A101  A(58,57,59)           108.4496         estimate D2E/DX2                !
 ! A102  A(62,60,69)           115.6176         estimate D2E/DX2                !
 ! A103  A(47,61,62)           121.924          estimate D2E/DX2                !
 ! A104  A(47,61,66)           120.5139         estimate D2E/DX2                !
 ! A105  A(62,61,66)           117.5621         estimate D2E/DX2                !
 ! A106  A(60,62,61)           112.6479         estimate D2E/DX2                !
 ! A107  A(60,62,68)           123.1661         estimate D2E/DX2                !
 ! A108  A(61,62,68)           124.1859         estimate D2E/DX2                !
 ! A109  A(52,63,56)           115.3123         estimate D2E/DX2                !
 ! A110  A(55,64,65)           119.8183         estimate D2E/DX2                !
 ! A111  A(55,64,66)           119.5637         estimate D2E/DX2                !
 ! A112  A(65,64,66)           120.618          estimate D2E/DX2                !
 ! A113  A(61,66,64)           119.9136         estimate D2E/DX2                !
 ! A114  A(61,66,67)           118.8015         estimate D2E/DX2                !
 ! A115  A(64,66,67)           121.2849         estimate D2E/DX2                !
 ! A116  A(60,69,70)           109.2585         estimate D2E/DX2                !
 ! A117  A(60,69,71)           109.876          estimate D2E/DX2                !
 ! A118  A(60,69,72)           106.6851         estimate D2E/DX2                !
 ! A119  A(70,69,71)           108.1775         estimate D2E/DX2                !
 ! A120  A(70,69,72)           111.7795         estimate D2E/DX2                !
 ! A121  A(71,69,72)           111.047          estimate D2E/DX2                !
 ! A122  A(69,72,73)           109.9292         estimate D2E/DX2                !
 ! A123  A(69,72,74)           109.7102         estimate D2E/DX2                !
 ! A124  A(69,72,75)           110.6616         estimate D2E/DX2                !
 ! A125  A(73,72,74)           107.9551         estimate D2E/DX2                !
 ! A126  A(73,72,75)           111.94           estimate D2E/DX2                !
 ! A127  A(74,72,75)           106.5371         estimate D2E/DX2                !
 ! A128  A(72,75,76)           109.5602         estimate D2E/DX2                !
 ! D1    D(2,1,11,8)           -71.8932         estimate D2E/DX2                !
 ! D2    D(2,1,11,12)          168.9128         estimate D2E/DX2                !
 ! D3    D(2,1,11,13)           51.1186         estimate D2E/DX2                !
 ! D4    D(4,3,5,6)             -0.002          estimate D2E/DX2                !
 ! D5    D(4,3,5,14)           179.9934         estimate D2E/DX2                !
 ! D6    D(17,3,5,6)          -179.988          estimate D2E/DX2                !
 ! D7    D(17,3,5,14)            0.0074         estimate D2E/DX2                !
 ! D8    D(4,3,17,18)            0.0613         estimate D2E/DX2                !
 ! D9    D(4,3,17,22)         -179.9641         estimate D2E/DX2                !
 ! D10   D(5,3,17,18)         -179.9526         estimate D2E/DX2                !
 ! D11   D(5,3,17,22)            0.022          estimate D2E/DX2                !
 ! D12   D(3,5,14,15)          179.9585         estimate D2E/DX2                !
 ! D13   D(3,5,14,20)           -0.0387         estimate D2E/DX2                !
 ! D14   D(6,5,14,15)           -0.046          estimate D2E/DX2                !
 ! D15   D(6,5,14,20)          179.9568         estimate D2E/DX2                !
 ! D16   D(9,8,11,1)           -58.3823         estimate D2E/DX2                !
 ! D17   D(9,8,11,12)           58.8838         estimate D2E/DX2                !
 ! D18   D(9,8,11,13)          177.4561         estimate D2E/DX2                !
 ! D19   D(10,8,11,1)           62.5209         estimate D2E/DX2                !
 ! D20   D(10,8,11,12)         179.7871         estimate D2E/DX2                !
 ! D21   D(10,8,11,13)         -61.6407         estimate D2E/DX2                !
 ! D22   D(19,8,11,1)         -178.1057         estimate D2E/DX2                !
 ! D23   D(19,8,11,12)         -60.8396         estimate D2E/DX2                !
 ! D24   D(19,8,11,13)          57.7326         estimate D2E/DX2                !
 ! D25   D(9,8,19,15)           60.5352         estimate D2E/DX2                !
 ! D26   D(10,8,19,15)         -57.9958         estimate D2E/DX2                !
 ! D27   D(11,8,19,15)        -178.9928         estimate D2E/DX2                !
 ! D28   D(5,14,15,7)            0.0202         estimate D2E/DX2                !
 ! D29   D(5,14,15,19)        -179.8532         estimate D2E/DX2                !
 ! D30   D(20,14,15,7)        -179.9827         estimate D2E/DX2                !
 ! D31   D(20,14,15,19)          0.144          estimate D2E/DX2                !
 ! D32   D(5,14,20,21)        -179.9442         estimate D2E/DX2                !
 ! D33   D(5,14,20,22)           0.0403         estimate D2E/DX2                !
 ! D34   D(15,14,20,21)          0.0588         estimate D2E/DX2                !
 ! D35   D(15,14,20,22)       -179.9568         estimate D2E/DX2                !
 ! D36   D(7,15,19,8)            0.4459         estimate D2E/DX2                !
 ! D37   D(14,15,19,8)        -179.6793         estimate D2E/DX2                !
 ! D38   D(35,16,18,17)        179.9403         estimate D2E/DX2                !
 ! D39   D(35,16,18,24)         -0.0346         estimate D2E/DX2                !
 ! D40   D(18,16,35,30)       -179.9321         estimate D2E/DX2                !
 ! D41   D(18,16,35,36)        -59.5286         estimate D2E/DX2                !
 ! D42   D(18,16,35,37)         59.6623         estimate D2E/DX2                !
 ! D43   D(3,17,18,16)          -0.1415         estimate D2E/DX2                !
 ! D44   D(3,17,18,24)         179.833          estimate D2E/DX2                !
 ! D45   D(22,17,18,16)        179.8831         estimate D2E/DX2                !
 ! D46   D(22,17,18,24)         -0.1424         estimate D2E/DX2                !
 ! D47   D(3,17,22,20)          -0.0204         estimate D2E/DX2                !
 ! D48   D(3,17,22,23)         179.9708         estimate D2E/DX2                !
 ! D49   D(18,17,22,20)        179.9554         estimate D2E/DX2                !
 ! D50   D(18,17,22,23)         -0.0534         estimate D2E/DX2                !
 ! D51   D(14,20,22,17)         -0.0107         estimate D2E/DX2                !
 ! D52   D(14,20,22,23)        179.9983         estimate D2E/DX2                !
 ! D53   D(21,20,22,17)        179.9736         estimate D2E/DX2                !
 ! D54   D(21,20,22,23)         -0.0174         estimate D2E/DX2                !
 ! D55   D(26,25,27,28)         -0.0121         estimate D2E/DX2                !
 ! D56   D(26,25,27,33)        179.9873         estimate D2E/DX2                !
 ! D57   D(39,25,27,28)        179.9947         estimate D2E/DX2                !
 ! D58   D(39,25,27,33)         -0.006          estimate D2E/DX2                !
 ! D59   D(26,25,39,40)          0.0412         estimate D2E/DX2                !
 ! D60   D(26,25,39,44)       -179.9856         estimate D2E/DX2                !
 ! D61   D(27,25,39,40)       -179.9655         estimate D2E/DX2                !
 ! D62   D(27,25,39,44)          0.0077         estimate D2E/DX2                !
 ! D63   D(25,27,33,34)       -179.9975         estimate D2E/DX2                !
 ! D64   D(25,27,33,42)         -0.0037         estimate D2E/DX2                !
 ! D65   D(28,27,33,34)          0.0019         estimate D2E/DX2                !
 ! D66   D(28,27,33,42)        179.9957         estimate D2E/DX2                !
 ! D67   D(31,30,35,16)         60.6295         estimate D2E/DX2                !
 ! D68   D(31,30,35,36)        -58.673          estimate D2E/DX2                !
 ! D69   D(31,30,35,37)        179.9373         estimate D2E/DX2                !
 ! D70   D(32,30,35,16)        -60.7694         estimate D2E/DX2                !
 ! D71   D(32,30,35,36)        179.9281         estimate D2E/DX2                !
 ! D72   D(32,30,35,37)         58.5384         estimate D2E/DX2                !
 ! D73   D(41,30,35,16)        179.9195         estimate D2E/DX2                !
 ! D74   D(41,30,35,36)         60.6169         estimate D2E/DX2                !
 ! D75   D(41,30,35,37)        -60.7727         estimate D2E/DX2                !
 ! D76   D(31,30,41,34)        -59.7441         estimate D2E/DX2                !
 ! D77   D(32,30,41,34)         59.4345         estimate D2E/DX2                !
 ! D78   D(35,30,41,34)        179.8562         estimate D2E/DX2                !
 ! D79   D(27,33,34,29)         -0.1223         estimate D2E/DX2                !
 ! D80   D(27,33,34,41)        179.8741         estimate D2E/DX2                !
 ! D81   D(42,33,34,29)        179.8839         estimate D2E/DX2                !
 ! D82   D(42,33,34,41)         -0.1197         estimate D2E/DX2                !
 ! D83   D(27,33,42,43)        179.9996         estimate D2E/DX2                !
 ! D84   D(27,33,42,44)          0.0116         estimate D2E/DX2                !
 ! D85   D(34,33,42,43)         -0.0068         estimate D2E/DX2                !
 ! D86   D(34,33,42,44)       -179.9948         estimate D2E/DX2                !
 ! D87   D(29,34,41,30)          0.0096         estimate D2E/DX2                !
 ! D88   D(33,34,41,30)       -179.9868         estimate D2E/DX2                !
 ! D89   D(57,38,40,39)        179.9689         estimate D2E/DX2                !
 ! D90   D(57,38,40,46)         -0.0127         estimate D2E/DX2                !
 ! D91   D(40,38,57,52)       -179.8891         estimate D2E/DX2                !
 ! D92   D(40,38,57,58)         59.7068         estimate D2E/DX2                !
 ! D93   D(40,38,57,59)        -59.4729         estimate D2E/DX2                !
 ! D94   D(25,39,40,38)         -0.0341         estimate D2E/DX2                !
 ! D95   D(25,39,40,46)        179.9471         estimate D2E/DX2                !
 ! D96   D(44,39,40,38)        179.9919         estimate D2E/DX2                !
 ! D97   D(44,39,40,46)         -0.0268         estimate D2E/DX2                !
 ! D98   D(25,39,44,42)          0.0002         estimate D2E/DX2                !
 ! D99   D(25,39,44,45)       -179.9998         estimate D2E/DX2                !
 ! D100  D(40,39,44,42)        179.9746         estimate D2E/DX2                !
 ! D101  D(40,39,44,45)         -0.0254         estimate D2E/DX2                !
 ! D102  D(33,42,44,39)         -0.0098         estimate D2E/DX2                !
 ! D103  D(33,42,44,45)        179.9902         estimate D2E/DX2                !
 ! D104  D(43,42,44,39)       -179.9977         estimate D2E/DX2                !
 ! D105  D(43,42,44,45)          0.0023         estimate D2E/DX2                !
 ! D106  D(48,47,49,50)         -0.0298         estimate D2E/DX2                !
 ! D107  D(48,47,49,55)        179.9468         estimate D2E/DX2                !
 ! D108  D(61,47,49,50)       -179.9807         estimate D2E/DX2                !
 ! D109  D(61,47,49,55)         -0.0042         estimate D2E/DX2                !
 ! D110  D(48,47,61,62)          0.0762         estimate D2E/DX2                !
 ! D111  D(48,47,61,66)       -179.9291         estimate D2E/DX2                !
 ! D112  D(49,47,61,62)       -179.9724         estimate D2E/DX2                !
 ! D113  D(49,47,61,66)          0.0223         estimate D2E/DX2                !
 ! D114  D(47,49,55,56)       -179.9694         estimate D2E/DX2                !
 ! D115  D(47,49,55,64)         -0.0123         estimate D2E/DX2                !
 ! D116  D(50,49,55,56)          0.0078         estimate D2E/DX2                !
 ! D117  D(50,49,55,64)        179.9649         estimate D2E/DX2                !
 ! D118  D(53,52,57,38)        -60.6803         estimate D2E/DX2                !
 ! D119  D(53,52,57,58)         58.6154         estimate D2E/DX2                !
 ! D120  D(53,52,57,59)       -179.9805         estimate D2E/DX2                !
 ! D121  D(54,52,57,38)         60.705          estimate D2E/DX2                !
 ! D122  D(54,52,57,58)       -179.9993         estimate D2E/DX2                !
 ! D123  D(54,52,57,59)        -58.5952         estimate D2E/DX2                !
 ! D124  D(63,52,57,38)       -179.991          estimate D2E/DX2                !
 ! D125  D(63,52,57,58)        -60.6952         estimate D2E/DX2                !
 ! D126  D(63,52,57,59)         60.7089         estimate D2E/DX2                !
 ! D127  D(53,52,63,56)         59.4352         estimate D2E/DX2                !
 ! D128  D(54,52,63,56)        -59.7537         estimate D2E/DX2                !
 ! D129  D(57,52,63,56)        179.8449         estimate D2E/DX2                !
 ! D130  D(49,55,56,51)         -0.1951         estimate D2E/DX2                !
 ! D131  D(49,55,56,63)        179.7896         estimate D2E/DX2                !
 ! D132  D(64,55,56,51)        179.8484         estimate D2E/DX2                !
 ! D133  D(64,55,56,63)         -0.1669         estimate D2E/DX2                !
 ! D134  D(49,55,64,65)       -179.9776         estimate D2E/DX2                !
 ! D135  D(49,55,64,66)          0.0106         estimate D2E/DX2                !
 ! D136  D(56,55,64,65)         -0.0225         estimate D2E/DX2                !
 ! D137  D(56,55,64,66)        179.9657         estimate D2E/DX2                !
 ! D138  D(51,56,63,52)          0.0641         estimate D2E/DX2                !
 ! D139  D(55,56,63,52)       -179.9208         estimate D2E/DX2                !
 ! D140  D(69,60,62,61)       -179.6634         estimate D2E/DX2                !
 ! D141  D(69,60,62,68)          0.4741         estimate D2E/DX2                !
 ! D142  D(62,60,69,70)        -57.68           estimate D2E/DX2                !
 ! D143  D(62,60,69,71)         60.8549         estimate D2E/DX2                !
 ! D144  D(62,60,69,72)       -178.6792         estimate D2E/DX2                !
 ! D145  D(47,61,62,60)          0.2814         estimate D2E/DX2                !
 ! D146  D(47,61,62,68)       -179.8578         estimate D2E/DX2                !
 ! D147  D(66,61,62,60)       -179.7135         estimate D2E/DX2                !
 ! D148  D(66,61,62,68)          0.1474         estimate D2E/DX2                !
 ! D149  D(47,61,66,64)         -0.0241         estimate D2E/DX2                !
 ! D150  D(47,61,66,67)        179.9606         estimate D2E/DX2                !
 ! D151  D(62,61,66,64)        179.9709         estimate D2E/DX2                !
 ! D152  D(62,61,66,67)         -0.0445         estimate D2E/DX2                !
 ! D153  D(55,64,66,61)          0.0075         estimate D2E/DX2                !
 ! D154  D(55,64,66,67)       -179.9768         estimate D2E/DX2                !
 ! D155  D(65,64,66,61)        179.9956         estimate D2E/DX2                !
 ! D156  D(65,64,66,67)          0.0114         estimate D2E/DX2                !
 ! D157  D(60,69,72,73)         57.9146         estimate D2E/DX2                !
 ! D158  D(60,69,72,74)        -60.6538         estimate D2E/DX2                !
 ! D159  D(60,69,72,75)       -177.9269         estimate D2E/DX2                !
 ! D160  D(70,69,72,73)        -61.4625         estimate D2E/DX2                !
 ! D161  D(70,69,72,74)        179.9691         estimate D2E/DX2                !
 ! D162  D(70,69,72,75)         62.696          estimate D2E/DX2                !
 ! D163  D(71,69,72,73)        177.6264         estimate D2E/DX2                !
 ! D164  D(71,69,72,74)         59.058          estimate D2E/DX2                !
 ! D165  D(71,69,72,75)        -58.2151         estimate D2E/DX2                !
 ! D166  D(69,72,75,76)        -71.8761         estimate D2E/DX2                !
 ! D167  D(73,72,75,76)         51.1236         estimate D2E/DX2                !
 ! D168  D(74,72,75,76)        168.9168         estimate D2E/DX2                !
 --------------------------------------------------------------------------------
 Trust Radius=3.00D-01 FncErr=1.00D-07 GrdErr=1.00D-06 EigMax=2.50D+02 EigMin=1.00D-04
 Number of steps in this run=    384 maximum allowed number of steps=    456.
 GradGradGradGradGradGradGradGradGradGradGradGradGradGradGradGradGradGrad

 Symmetry turned off by external request.
 Stoichiometry    C32H30O14
 Framework group  C1[X(C32H30O14)]
 Deg. of freedom   222
 Full point group                 C1      NOp   1
                          Input orientation:                          
 ---------------------------------------------------------------------
 Center     Atomic      Atomic             Coordinates (Angstroms)
 Number     Number       Type             X           Y           Z
 ---------------------------------------------------------------------
      1          8           0        3.326500    6.401730   -1.452430
      2          1           0        4.255580    6.200240   -1.296510
      3          6           0       -0.376150    2.459790    4.970250
      4          1           0       -0.602730    1.530600    5.480260
      5          6           0        0.380450    2.461120    3.804590
      6          1           0        0.760730    1.538630    3.378720
      7          8           0        1.910870    2.585740    1.428130
      8          6           0        2.470170    4.835460    0.169930
      9          1           0        1.962000    4.255600   -0.605560
     10          1           0        3.444800    4.371850    0.359910
     11          6           0        2.609140    6.292080   -0.240700
     12          1           0        1.620340    6.718820   -0.424890
     13          1           0        3.080050    6.865900    0.568140
     14          6           0        0.663500    3.666880    3.159420
     15          6           0        1.482000    3.607290    1.910750
     16          8           0       -1.879300    2.515480    7.273900
     17          6           0       -0.848270    3.669450    5.487340
     18          6           0       -1.664320    3.729980    6.735760
     19          8           0        1.697070    4.819840    1.374820
     20          6           0        0.190780    4.876280    3.676270
     21          1           0        0.417080    5.804780    3.164940
     22          6           0       -0.565810    4.875360    4.841910
     23          1           0       -0.946500    5.797980    5.267160
     24          8           0       -2.092440    4.748880    7.223650
     25          6           0       -5.602920   -1.316580   13.682090
     26          1           0       -5.833060   -2.246270   14.189540
     27          6           0       -4.849380   -1.315240   12.514520
     28          1           0       -4.475020   -2.238360   12.084800
     29          8           0       -3.323260   -1.188250   10.133400
     30          6           0       -2.758740    1.054060    8.884110
     31          1           0       -1.773210    0.619890    9.074940
     32          1           0       -3.257980    0.455470    8.116950
     33          6           0       -4.562050   -0.108440   11.872990
     34          6           0       -3.748540   -0.168840   10.622460
     35          6           0       -2.654890    2.507480    8.474050
     36          1           0       -2.156740    3.106210    9.241880
     37          1           0       -3.640310    2.941430    8.282130
     38          8           0       -7.098180   -1.260660   15.990660
     39          6           0       -6.067170   -0.106220   14.204530
     40          6           0       -6.880080   -0.045820   15.455450
     41          8           0       -3.532830    1.045690   10.085580
     42          6           0       -5.026470    1.101900   12.395320
     43          1           0       -4.796490    2.031580   11.887750
     44          6           0       -5.779870    1.100580   13.562980
     45          1           0       -6.154150    2.023710   13.992750
     46          8           0       -7.302780    0.973800   15.946290
     47          6           0      -10.831820   -5.095820   22.391370
     48          1           0      -11.066600   -6.025590   22.896540
     49          6           0      -10.077080   -5.094260   21.224540
     50          1           0       -9.705670   -6.017560   20.792630
     51          8           0       -8.547760   -4.965890   18.844740
     52          6           0       -7.978870   -2.723160   17.599880
     53          1           0       -8.480100   -3.318840   16.831710
     54          1           0       -6.994330   -3.160330   17.789090
     55          6           0       -9.784980   -3.886850   20.586210
     56          6           0       -8.971180   -3.946780   19.336300
     57          6           0       -7.871480   -1.269210   17.192630
     58          1           0       -8.855960   -0.831980   17.003420
     59          1           0       -7.369970   -0.673460   17.960540
     60          8           0      -12.323670   -5.039690   24.701970
     61          6           0      -11.292760   -3.885540   22.916720
     62          6           0      -12.107420   -3.826510   24.167930
     63          8           0       -8.752210   -2.731530   18.801480
     64          6           0      -10.246150   -2.676400   21.111250
     65          1           0      -10.012960   -1.746140   20.606190
     66          6           0      -11.000910   -2.678370   22.278110
     67          1           0      -11.373270   -1.755340   22.709770
     68          8           0      -12.528590   -2.804540   24.656380
     69          6           0      -13.105580   -5.057710   25.901120
     70          1           0      -12.620350   -4.431710   26.658450
     71          1           0      -14.099060   -4.645640   25.703400
     72          6           0      -13.194670   -6.509360   26.342170
     73          1           0      -12.186640   -6.916680   26.494630
     74          1           0      -13.683120   -7.101410   25.564600
     75          8           0      -13.993430   -6.630090   27.500740
     76          1           0      -13.518800   -6.271500   28.258540
 ---------------------------------------------------------------------
 Rotational constants (GHZ):           0.5617204           0.0073207           0.0072295
 Standard basis: 6-311+G(2d,p) (5D, 7F)
  1422 basis functions,  2172 primitive gaussians,  1514 cartesian basis functions
   167 alpha electrons      167 beta electrons
       nuclear repulsion energy      4445.5986076070 Hartrees.
 NAtoms=   76 NActive=   76 NUniq=   76 SFac= 1.00D+00 NAtFMM=   60 NAOKFM=T Big=T
 Integral buffers will be    131072 words long.
 Raffenetti 2 integral format.
 Two-electron integral symmetry is turned off.
 One-electron integrals computed using PRISM.
 NBasis=  1422 RedAO= T EigKep=  1.02D-06  NBF=  1422
 NBsUse=  1413 1.00D-06 EigRej=  6.02D-07 NBFU=  1413
 ExpMin= 4.38D-02 ExpMax= 8.59D+03 ExpMxC= 1.30D+03 IAcc=3 IRadAn=         5 AccDes= 0.00D+00
 Harris functional with IExCor= 1009 and IRadAn=       5 diagonalized for initial guess.
 HarFok:  IExCor= 1009 AccDes= 0.00D+00 IRadAn=         5 IDoV= 1 UseB2=F ITyADJ=14
 ICtDFT=  3500011 ScaDFX=  1.000000  1.000000  1.000000  1.000000
 FoFCou: FMM=F IPFlag=           0 FMFlag=      100000 FMFlg1=        2001
         NFxFlg=           0 DoJE=T BraDBF=F KetDBF=T FulRan=T
         wScrn=  0.000000 ICntrl=       500 IOpCl=  0 I1Cent=   200000004 NGrid=           0
         NMat0=    1 NMatS0=      1 NMatT0=    0 NMatD0=    1 NMtDS0=    0 NMtDT0=    0
 Symmetry not used in FoFCou.
 Requested convergence on RMS density matrix=1.00D-08 within  32 cycles.
 Requested convergence on MAX density matrix=1.00D-06.
 Requested convergence on             energy=1.00D-06.
 No special actions if energy rises.
 SCF Done:  E(RM062X) =  -2290.50619621     A.U. after   14 cycles
            NFock= 14  Conv=0.59D-08     -V/T= 2.0037
 QCSCF skips out because SCF is already converged.

 **********************************************************************

            Population analysis using the SCF Density.

 **********************************************************************

 Alpha  occ. eigenvalues --  -19.69241 -19.69240 -19.69178 -19.69177 -19.68689
 Alpha  occ. eigenvalues --  -19.68689 -19.64014 -19.64013 -19.63209 -19.63209
 Alpha  occ. eigenvalues --  -19.63135 -19.63135 -19.62787 -19.62786 -10.69498
 Alpha  occ. eigenvalues --  -10.69498 -10.69421 -10.69421 -10.69086 -10.69086
 Alpha  occ. eigenvalues --  -10.61766 -10.61766 -10.61721 -10.61721 -10.60693
 Alpha  occ. eigenvalues --  -10.60692 -10.60122 -10.60121 -10.58394 -10.58392
 Alpha  occ. eigenvalues --  -10.58242 -10.58242 -10.58165 -10.58165 -10.57361
 Alpha  occ. eigenvalues --  -10.57357 -10.57209 -10.57209 -10.57169 -10.57168
 Alpha  occ. eigenvalues --  -10.57140 -10.57138 -10.56997 -10.56996 -10.56942
 Alpha  occ. eigenvalues --  -10.56941  -1.26100  -1.26097  -1.25669  -1.25666
 Alpha  occ. eigenvalues --   -1.25382  -1.25381  -1.16570  -1.16570  -1.16435
 Alpha  occ. eigenvalues --   -1.16434  -1.16013  -1.16013  -1.15623  -1.15622
 Alpha  occ. eigenvalues --   -0.99774  -0.99582  -0.99576  -0.92685  -0.91982
 Alpha  occ. eigenvalues --   -0.90906  -0.89852  -0.88545  -0.87411  -0.87388
 Alpha  occ. eigenvalues --   -0.87303  -0.86736  -0.86430  -0.81232  -0.79501
 Alpha  occ. eigenvalues --   -0.77228  -0.76034  -0.74308  -0.73296  -0.73107
 Alpha  occ. eigenvalues --   -0.71849  -0.71377  -0.71076  -0.69744  -0.69243
 Alpha  occ. eigenvalues --   -0.67997  -0.67379  -0.66281  -0.65760  -0.64290
 Alpha  occ. eigenvalues --   -0.64248  -0.64144  -0.62284  -0.62208  -0.61927
 Alpha  occ. eigenvalues --   -0.61659  -0.61644  -0.60969  -0.60951  -0.58839
 Alpha  occ. eigenvalues --   -0.58549  -0.58099  -0.57850  -0.57676  -0.57612
 Alpha  occ. eigenvalues --   -0.57559  -0.57505  -0.57291  -0.57207  -0.54549
 Alpha  occ. eigenvalues --   -0.54413  -0.54385  -0.53688  -0.53660  -0.53466
 Alpha  occ. eigenvalues --   -0.53327  -0.52709  -0.52416  -0.52387  -0.51884
 Alpha  occ. eigenvalues --   -0.51790  -0.51762  -0.51610  -0.51501  -0.51258
 Alpha  occ. eigenvalues --   -0.49869  -0.48836  -0.48344  -0.48277  -0.47518
 Alpha  occ. eigenvalues --   -0.47496  -0.46762  -0.46317  -0.46099  -0.45770
 Alpha  occ. eigenvalues --   -0.45257  -0.45210  -0.45171  -0.44696  -0.44539
 Alpha  occ. eigenvalues --   -0.44318  -0.44226  -0.42836  -0.42673  -0.42600
 Alpha  occ. eigenvalues --   -0.41729  -0.41723  -0.39778  -0.39744  -0.39508
 Alpha  occ. eigenvalues --   -0.39496  -0.39061  -0.39059  -0.37972  -0.37970
 Alpha  occ. eigenvalues --   -0.37587  -0.37584  -0.37462  -0.37423  -0.36913
 Alpha  occ. eigenvalues --   -0.36911  -0.33784  -0.33599  -0.33599  -0.33469
 Alpha  occ. eigenvalues --   -0.33304  -0.33303
 Alpha virt. eigenvalues --   -0.05795  -0.05570  -0.05545  -0.00540  -0.00386
 Alpha virt. eigenvalues --   -0.00383   0.00102   0.00268   0.00427   0.00648
 Alpha virt. eigenvalues --    0.01035   0.01412   0.01659   0.01678   0.02451
 Alpha virt. eigenvalues --    0.02657   0.02742   0.02834   0.03024   0.03183
 Alpha virt. eigenvalues --    0.03225   0.03278   0.03506   0.03560   0.03616
 Alpha virt. eigenvalues --    0.03751   0.03829   0.04384   0.04579   0.04793
 Alpha virt. eigenvalues --    0.05062   0.05171   0.05494   0.05580   0.05967
 Alpha virt. eigenvalues --    0.06297   0.06331   0.06702   0.06736   0.06874
 Alpha virt. eigenvalues --    0.07370   0.07411   0.07478   0.07495   0.07520
 Alpha virt. eigenvalues --    0.07881   0.08051   0.08398   0.08673   0.08761
 Alpha virt. eigenvalues --    0.09356   0.09385   0.09682   0.09843   0.10044
 Alpha virt. eigenvalues --    0.10139   0.10172   0.10676   0.10804   0.10855
 Alpha virt. eigenvalues --    0.11049   0.11610   0.11680   0.11697   0.12114
 Alpha virt. eigenvalues --    0.12909   0.13077   0.13163   0.13201   0.13258
 Alpha virt. eigenvalues --    0.13629   0.13767   0.13928   0.14100   0.14132
 Alpha virt. eigenvalues --    0.14226   0.14413   0.14491   0.14743   0.14858
 Alpha virt. eigenvalues --    0.14889   0.15115   0.15184   0.15459   0.15868
 Alpha virt. eigenvalues --    0.15985   0.16195   0.16736   0.17010   0.17396
 Alpha virt. eigenvalues --    0.17410   0.17559   0.17597   0.17610   0.17644
 Alpha virt. eigenvalues --    0.17961   0.18062   0.18136   0.18286   0.18486
 Alpha virt. eigenvalues --    0.18720   0.18757   0.18920   0.19097   0.19335
 Alpha virt. eigenvalues --    0.19388   0.19681   0.19721   0.19731   0.20109
 Alpha virt. eigenvalues --    0.20289   0.20473   0.20567   0.20652   0.20789
 Alpha virt. eigenvalues --    0.20903   0.20998   0.21132   0.21287   0.21474
 Alpha virt. eigenvalues --    0.21670   0.21982   0.22060   0.22329   0.22353
 Alpha virt. eigenvalues --    0.22390   0.22618   0.22691   0.22763   0.22957
 Alpha virt. eigenvalues --    0.23053   0.23274   0.23404   0.23472   0.23746
 Alpha virt. eigenvalues --    0.23941   0.24081   0.24202   0.24228   0.24334
 Alpha virt. eigenvalues --    0.24557   0.24581   0.24828   0.24879   0.25064
 Alpha virt. eigenvalues --    0.25093   0.25328   0.25685   0.25877   0.25947
 Alpha virt. eigenvalues --    0.26042   0.26336   0.26457   0.26769   0.26911
 Alpha virt. eigenvalues --    0.27173   0.27260   0.27649   0.27978   0.28156
 Alpha virt. eigenvalues --    0.28340   0.28454   0.28666   0.28707   0.28771
 Alpha virt. eigenvalues --    0.28784   0.29021   0.29087   0.29130   0.29235
 Alpha virt. eigenvalues --    0.29522   0.29679   0.29770   0.29851   0.29882
 Alpha virt. eigenvalues --    0.30011   0.30014   0.30165   0.30572   0.30646
 Alpha virt. eigenvalues --    0.31313   0.31440   0.31509   0.31516   0.32014
 Alpha virt. eigenvalues --    0.32163   0.32167   0.32404   0.32429   0.32621
 Alpha virt. eigenvalues --    0.32652   0.32962   0.32963   0.33336   0.33470
 Alpha virt. eigenvalues --    0.33663   0.33701   0.33738   0.33769   0.33844
 Alpha virt. eigenvalues --    0.33988   0.34193   0.34237   0.34363   0.34426
 Alpha virt. eigenvalues --    0.34609   0.34925   0.34986   0.35094   0.35123
 Alpha virt. eigenvalues --    0.35403   0.35634   0.36063   0.36384   0.36747
 Alpha virt. eigenvalues --    0.36826   0.37316   0.37798   0.37910   0.38875
 Alpha virt. eigenvalues --    0.39656   0.39971   0.40067   0.40190   0.40501
 Alpha virt. eigenvalues --    0.41094   0.41190   0.41433   0.42012   0.42039
 Alpha virt. eigenvalues --    0.42319   0.42341   0.42771   0.42788   0.42859
 Alpha virt. eigenvalues --    0.43122   0.43602   0.43608   0.43908   0.44119
 Alpha virt. eigenvalues --    0.44481   0.44773   0.45391   0.45402   0.45625
 Alpha virt. eigenvalues --    0.45744   0.46159   0.46236   0.46410   0.46466
 Alpha virt. eigenvalues --    0.47093   0.47682   0.48042   0.48569   0.48675
 Alpha virt. eigenvalues --    0.48908   0.48952   0.49809   0.50004   0.50133
 Alpha virt. eigenvalues --    0.50158   0.50549   0.50891   0.51772   0.52060
 Alpha virt. eigenvalues --    0.52272   0.52382   0.52521   0.52932   0.53211
 Alpha virt. eigenvalues --    0.53503   0.53519   0.53545   0.54013   0.54072
 Alpha virt. eigenvalues --    0.54319   0.54390   0.54882   0.55215   0.55238
 Alpha virt. eigenvalues --    0.55403   0.55631   0.56003   0.56331   0.56917
 Alpha virt. eigenvalues --    0.57011   0.57501   0.57932   0.58116   0.58186
 Alpha virt. eigenvalues --    0.58451   0.58591   0.59160   0.59583   0.59901
 Alpha virt. eigenvalues --    0.60177   0.60605   0.60820   0.60853   0.60967
 Alpha virt. eigenvalues --    0.61075   0.61329   0.61362   0.61418   0.61458
 Alpha virt. eigenvalues --    0.61805   0.62007   0.62152   0.62433   0.63120
 Alpha virt. eigenvalues --    0.63207   0.63329   0.63367   0.63624   0.63877
 Alpha virt. eigenvalues --    0.64208   0.64715   0.64742   0.65034   0.65383
 Alpha virt. eigenvalues --    0.65437   0.66593   0.66630   0.66814   0.67302
 Alpha virt. eigenvalues --    0.67400   0.67474   0.67819   0.67975   0.67978
 Alpha virt. eigenvalues --    0.68258   0.68680   0.68690   0.68846   0.69095
 Alpha virt. eigenvalues --    0.69188   0.70147   0.70279   0.70504   0.70543
 Alpha virt. eigenvalues --    0.70550   0.70642   0.70765   0.70868   0.71189
 Alpha virt. eigenvalues --    0.71328   0.71601   0.72055   0.72127   0.72242
 Alpha virt. eigenvalues --    0.72373   0.72582   0.72777   0.72949   0.74054
 Alpha virt. eigenvalues --    0.74264   0.74285   0.74609   0.74648   0.75101
 Alpha virt. eigenvalues --    0.75259   0.75451   0.75814   0.76106   0.76192
 Alpha virt. eigenvalues --    0.76632   0.76670   0.76883   0.77133   0.77161
 Alpha virt. eigenvalues --    0.77325   0.77580   0.77595   0.78129   0.78196
 Alpha virt. eigenvalues --    0.78539   0.78718   0.78987   0.79250   0.79354
 Alpha virt. eigenvalues --    0.79910   0.80313   0.80965   0.81274   0.81628
 Alpha virt. eigenvalues --    0.81742   0.81912   0.82640   0.82708   0.82916
 Alpha virt. eigenvalues --    0.82968   0.83251   0.83649   0.84346   0.84811
 Alpha virt. eigenvalues --    0.84835   0.85060   0.85190   0.85748   0.85906
 Alpha virt. eigenvalues --    0.86142   0.86170   0.86247   0.86925   0.86988
 Alpha virt. eigenvalues --    0.87229   0.87817   0.88010   0.88214   0.88953
 Alpha virt. eigenvalues --    0.89268   0.89437   0.89780   0.90095   0.90263
 Alpha virt. eigenvalues --    0.90697   0.91106   0.91330   0.91447   0.92120
 Alpha virt. eigenvalues --    0.92541   0.92554   0.92808   0.93811   0.94161
 Alpha virt. eigenvalues --    0.94264   0.95127   0.95844   0.96318   0.96450
 Alpha virt. eigenvalues --    0.97051   0.97342   0.97385   0.97580   0.98023
 Alpha virt. eigenvalues --    0.98218   0.98516   0.98601   0.98893   0.98934
 Alpha virt. eigenvalues --    0.99096   0.99388   0.99973   1.00188   1.00730
 Alpha virt. eigenvalues --    1.00863   1.01439   1.01497   1.01648   1.01774
 Alpha virt. eigenvalues --    1.02280   1.02310   1.02769   1.02772   1.03965
 Alpha virt. eigenvalues --    1.04085   1.04481   1.04842   1.05454   1.05622
 Alpha virt. eigenvalues --    1.06538   1.06685   1.07776   1.07908   1.09039
 Alpha virt. eigenvalues --    1.09935   1.10367   1.10458   1.11294   1.11630
 Alpha virt. eigenvalues --    1.11836   1.12559   1.12790   1.13051   1.13393
 Alpha virt. eigenvalues --    1.14008   1.14078   1.14359   1.14545   1.14786
 Alpha virt. eigenvalues --    1.14867   1.14993   1.15194   1.15396   1.15586
 Alpha virt. eigenvalues --    1.15595   1.15790   1.16430   1.16546   1.17213
 Alpha virt. eigenvalues --    1.17229   1.17360   1.17432   1.17609   1.18009
 Alpha virt. eigenvalues --    1.18105   1.18734   1.18930   1.19509   1.19736
 Alpha virt. eigenvalues --    1.19886   1.20324   1.20389   1.20779   1.20790
 Alpha virt. eigenvalues --    1.21418   1.21431   1.21658   1.21729   1.21970
 Alpha virt. eigenvalues --    1.22869   1.23775   1.23835   1.24266   1.24599
 Alpha virt. eigenvalues --    1.24642   1.25074   1.25431   1.25549   1.25578
 Alpha virt. eigenvalues --    1.26013   1.26160   1.26184   1.26258   1.26540
 Alpha virt. eigenvalues --    1.26669   1.26833   1.27343   1.27905   1.28069
 Alpha virt. eigenvalues --    1.28543   1.28610   1.28674   1.28833   1.29205
 Alpha virt. eigenvalues --    1.29381   1.29454   1.29541   1.30845   1.30950
 Alpha virt. eigenvalues --    1.31188   1.31246   1.32350   1.32475   1.32870
 Alpha virt. eigenvalues --    1.33327   1.34249   1.34320   1.35062   1.35175
 Alpha virt. eigenvalues --    1.35406   1.36300   1.36875   1.36932   1.37053
 Alpha virt. eigenvalues --    1.37184   1.37246   1.38273   1.38705   1.38837
 Alpha virt. eigenvalues --    1.38976   1.39367   1.40144   1.40223   1.40356
 Alpha virt. eigenvalues --    1.40550   1.41168   1.41465   1.41574   1.41724
 Alpha virt. eigenvalues --    1.42028   1.42183   1.43389   1.43941   1.44638
 Alpha virt. eigenvalues --    1.46155   1.46203   1.47955   1.48354   1.48437
 Alpha virt. eigenvalues --    1.49776   1.50113   1.50525   1.51738   1.51782
 Alpha virt. eigenvalues --    1.52724   1.52982   1.53330   1.53432   1.53500
 Alpha virt. eigenvalues --    1.53650   1.56820   1.56879   1.57173   1.57548
 Alpha virt. eigenvalues --    1.57734   1.58396   1.58925   1.58933   1.59147
 Alpha virt. eigenvalues --    1.59339   1.59429   1.59793   1.60069   1.60322
 Alpha virt. eigenvalues --    1.60526   1.60877   1.61079   1.61341   1.61567
 Alpha virt. eigenvalues --    1.63548   1.63582   1.63865   1.63909   1.64069
 Alpha virt. eigenvalues --    1.64081   1.64535   1.64788   1.65212   1.65388
 Alpha virt. eigenvalues --    1.66531   1.67095   1.68173   1.68226   1.68473
 Alpha virt. eigenvalues --    1.68600   1.72075   1.72383   1.73466   1.73863
 Alpha virt. eigenvalues --    1.74690   1.75073   1.75450   1.75834   1.76285
 Alpha virt. eigenvalues --    1.76371   1.76478   1.76608   1.76927   1.77002
 Alpha virt. eigenvalues --    1.77970   1.78076   1.78110   1.78199   1.78390
 Alpha virt. eigenvalues --    1.79602   1.79860   1.79996   1.80039   1.80139
 Alpha virt. eigenvalues --    1.80144   1.80239   1.81124   1.82705   1.82832
 Alpha virt. eigenvalues --    1.82960   1.83181   1.83342   1.84255   1.84629
 Alpha virt. eigenvalues --    1.84864   1.85652   1.85672   1.85871   1.86342
 Alpha virt. eigenvalues --    1.86373   1.86943   1.86977   1.87051   1.87477
 Alpha virt. eigenvalues --    1.90080   1.90085   1.90460   1.91056   1.91952
 Alpha virt. eigenvalues --    1.92914   1.96343   1.96663   1.98873   1.98906
 Alpha virt. eigenvalues --    1.99074   1.99109   1.99516   2.00193   2.00361
 Alpha virt. eigenvalues --    2.00795   2.00874   2.01071   2.02621   2.02646
 Alpha virt. eigenvalues --    2.02961   2.02981   2.04272   2.04990   2.05293
 Alpha virt. eigenvalues --    2.11898   2.11984   2.12187   2.12951   2.13104
 Alpha virt. eigenvalues --    2.13514   2.13536   2.14834   2.14957   2.15656
 Alpha virt. eigenvalues --    2.15944   2.16821   2.17088   2.17836   2.18779
 Alpha virt. eigenvalues --    2.19288   2.19565   2.19672   2.19891   2.20157
 Alpha virt. eigenvalues --    2.20702   2.21048   2.21677   2.23096   2.24013
 Alpha virt. eigenvalues --    2.24078   2.25039   2.25383   2.25474   2.25675
 Alpha virt. eigenvalues --    2.25812   2.26117   2.27901   2.27934   2.30817
 Alpha virt. eigenvalues --    2.31165   2.32083   2.32107   2.32919   2.33226
 Alpha virt. eigenvalues --    2.33367   2.34163   2.34831   2.34899   2.35729
 Alpha virt. eigenvalues --    2.36406   2.36599   2.38847   2.40343   2.41470
 Alpha virt. eigenvalues --    2.41511   2.41845   2.42114   2.42979   2.43999
 Alpha virt. eigenvalues --    2.44037   2.44766   2.44833   2.45230   2.46463
 Alpha virt. eigenvalues --    2.47331   2.47400   2.47661   2.51256   2.51260
 Alpha virt. eigenvalues --    2.55482   2.55492   2.55554   2.55614   2.55812
 Alpha virt. eigenvalues --    2.55865   2.56481   2.56771   2.58174   2.58226
 Alpha virt. eigenvalues --    2.58698   2.58901   2.59640   2.60449   2.60660
 Alpha virt. eigenvalues --    2.61180   2.62120   2.62771   2.63351   2.65064
 Alpha virt. eigenvalues --    2.65190   2.65627   2.67553   2.67623   2.68259
 Alpha virt. eigenvalues --    2.68463   2.68695   2.69981   2.70227   2.70246
 Alpha virt. eigenvalues --    2.71455   2.71743   2.72374   2.72404   2.72468
 Alpha virt. eigenvalues --    2.72725   2.73254   2.73276   2.73351   2.74033
 Alpha virt. eigenvalues --    2.76056   2.76511   2.77039   2.77910   2.77971
 Alpha virt. eigenvalues --    2.78046   2.78999   2.79036   2.79388   2.79624
 Alpha virt. eigenvalues --    2.79677   2.79798   2.79888   2.80149   2.80184
 Alpha virt. eigenvalues --    2.80671   2.81200   2.82879   2.83325   2.84994
 Alpha virt. eigenvalues --    2.85101   2.85860   2.85885   2.86132   2.86219
 Alpha virt. eigenvalues --    2.86455   2.86522   2.92299   2.92540   2.92630
 Alpha virt. eigenvalues --    2.93680   2.93731   2.95707   2.96008   2.96062
 Alpha virt. eigenvalues --    2.96974   2.97009   2.97126   2.97189   2.97473
 Alpha virt. eigenvalues --    2.98353   2.99069   2.99640   3.00047   3.00706
 Alpha virt. eigenvalues --    3.02053   3.03520   3.07131   3.07597   3.08025
 Alpha virt. eigenvalues --    3.08807   3.09276   3.09696   3.11388   3.11521
 Alpha virt. eigenvalues --    3.11868   3.12184   3.12344   3.12386   3.12460
 Alpha virt. eigenvalues --    3.14237   3.14257   3.14376   3.14452   3.15714
 Alpha virt. eigenvalues --    3.15806   3.16076   3.16797   3.17437   3.17513
 Alpha virt. eigenvalues --    3.17848   3.20975   3.21044   3.21069   3.21830
 Alpha virt. eigenvalues --    3.22058   3.22462   3.22557   3.23119   3.23579
 Alpha virt. eigenvalues --    3.25849   3.25859   3.26769   3.26941   3.29542
 Alpha virt. eigenvalues --    3.29738   3.29812   3.29979   3.30152   3.30189
 Alpha virt. eigenvalues --    3.30277   3.30322   3.30399   3.30905   3.30914
 Alpha virt. eigenvalues --    3.32430   3.32517   3.33329   3.34437   3.34545
 Alpha virt. eigenvalues --    3.34554   3.35631   3.36292   3.36698   3.37147
 Alpha virt. eigenvalues --    3.37578   3.37683   3.38874   3.39403   3.41206
 Alpha virt. eigenvalues --    3.41525   3.41636   3.41800   3.42020   3.42025
 Alpha virt. eigenvalues --    3.42044   3.42365   3.42718   3.42860   3.42982
 Alpha virt. eigenvalues --    3.44001   3.44231   3.44287   3.44506   3.44798
 Alpha virt. eigenvalues --    3.44957   3.45111   3.45716   3.46158   3.46353
 Alpha virt. eigenvalues --    3.48285   3.48376   3.48515   3.48566   3.48869
 Alpha virt. eigenvalues --    3.50362   3.50895   3.51221   3.51426   3.51535
 Alpha virt. eigenvalues --    3.52766   3.52887   3.53414   3.53581   3.53964
 Alpha virt. eigenvalues --    3.54157   3.54354   3.54446   3.54517   3.54911
 Alpha virt. eigenvalues --    3.55176   3.55605   3.55799   3.56101   3.56187
 Alpha virt. eigenvalues --    3.57804   3.58064   3.58233   3.58237   3.58587
 Alpha virt. eigenvalues --    3.59623   3.59874   3.61367   3.61565   3.61580
 Alpha virt. eigenvalues --    3.61769   3.61946   3.62135   3.62372   3.63337
 Alpha virt. eigenvalues --    3.63509   3.63821   3.63848   3.64069   3.64631
 Alpha virt. eigenvalues --    3.65050   3.65442   3.65490   3.65545   3.66250
 Alpha virt. eigenvalues --    3.66609   3.66726   3.66850   3.68717   3.70260
 Alpha virt. eigenvalues --    3.70359   3.70668   3.71006   3.71298   3.71546
 Alpha virt. eigenvalues --    3.71588   3.72213   3.72257   3.75227   3.75354
 Alpha virt. eigenvalues --    3.75791   3.75973   3.75975   3.76601   3.77422
 Alpha virt. eigenvalues --    3.77750   3.77881   3.78953   3.79252   3.80075
 Alpha virt. eigenvalues --    3.85546   3.85700   3.85795   3.86836   3.86902
 Alpha virt. eigenvalues --    3.87726   3.88528   3.88616   3.89162   3.90275
 Alpha virt. eigenvalues --    3.90612   3.90957   3.92135   3.92177   3.92566
 Alpha virt. eigenvalues --    3.92833   3.93315   3.93929   3.94243   3.94665
 Alpha virt. eigenvalues --    3.97845   4.00511   4.01357   4.01659   4.01759
 Alpha virt. eigenvalues --    4.02275   4.02592   4.03310   4.03773   4.05114
 Alpha virt. eigenvalues --    4.05593   4.06638   4.07452   4.08873   4.09457
 Alpha virt. eigenvalues --    4.10502   4.10641   4.11838   4.11990   4.12381
 Alpha virt. eigenvalues --    4.12522   4.15691   4.15943   4.16172   4.17107
 Alpha virt. eigenvalues --    4.17821   4.18538   4.19496   4.19511   4.19567
 Alpha virt. eigenvalues --    4.19779   4.19842   4.19943   4.20004   4.22064
 Alpha virt. eigenvalues --    4.22072   4.22076   4.22439   4.22879   4.23552
 Alpha virt. eigenvalues --    4.23554   4.50111   4.50120   4.51361   4.51509
 Alpha virt. eigenvalues --    4.51623   4.55563   4.55656   4.63466   4.63631
 Alpha virt. eigenvalues --    4.63882   4.63939   4.64367   4.64997   4.79970
 Alpha virt. eigenvalues --    4.80105   4.80107   4.91379   4.91805   4.92443
 Alpha virt. eigenvalues --    5.10891   5.11251   5.11798   5.11816   5.12184
 Alpha virt. eigenvalues --    5.12448   5.17465   5.17479   5.17970   5.17971
 Alpha virt. eigenvalues --    5.18160   5.18305   5.20856   5.20882   5.29522
 Alpha virt. eigenvalues --    5.29852   5.30097   5.43578   5.44282   5.45846
 Alpha virt. eigenvalues --    5.46307   5.49222   5.49237   5.49657   5.50866
 Alpha virt. eigenvalues --    5.55333   5.55861   5.56891   5.57169   5.58344
 Alpha virt. eigenvalues --    5.58864   5.87561   5.87561   5.93082   5.94331
 Alpha virt. eigenvalues --    5.96155   5.98134   5.99961   6.01189   6.21446
 Alpha virt. eigenvalues --    6.21599   6.21761   6.22171   6.22221   6.22416
 Alpha virt. eigenvalues --    6.76761   6.76886   6.76922   6.77036   6.77310
 Alpha virt. eigenvalues --    6.77314   6.87760   6.87765   6.89972   6.90143
 Alpha virt. eigenvalues --    6.90275   6.91143   6.91407   6.91627   6.92280
 Alpha virt. eigenvalues --    6.92316   6.92741   6.92795   6.92942   6.92945
 Alpha virt. eigenvalues --    6.95701   6.95705   6.98295   6.98428   7.00240
 Alpha virt. eigenvalues --    7.00249   7.01155   7.01232   7.01894   7.01894
 Alpha virt. eigenvalues --    7.04419   7.04438   7.05354   7.05365   7.05913
 Alpha virt. eigenvalues --    7.06004   7.09181   7.09386   7.09441   7.09708
 Alpha virt. eigenvalues --    7.10006   7.10007   7.14008   7.14014   7.20828
 Alpha virt. eigenvalues --    7.21002   7.21306   7.21308   7.21315   7.21443
 Alpha virt. eigenvalues --    7.25388   7.25430   7.25711   7.26939   7.26996
 Alpha virt. eigenvalues --    7.27153   7.30762   7.30765   7.41155   7.41429
 Alpha virt. eigenvalues --    7.44563   7.45155   7.45877   7.45982   7.50449
 Alpha virt. eigenvalues --    7.50580   7.52254   7.53191   7.53377   7.53735
 Alpha virt. eigenvalues --   23.82637  23.82692  23.82888  23.99384  23.99386
 Alpha virt. eigenvalues --   24.01709  24.01907  24.02020  24.03229  24.03866
 Alpha virt. eigenvalues --   24.07611  24.07858  24.08187  24.08636  24.08989
 Alpha virt. eigenvalues --   24.09482  24.09849  24.11751  24.12145  24.12413
 Alpha virt. eigenvalues --   24.23591  24.23953  24.24315  24.24576  24.24830
 Alpha virt. eigenvalues --   24.24963  24.29847  24.30068  24.30322  24.30483
 Alpha virt. eigenvalues --   24.30878  24.30949  50.05347  50.05350  50.12232
 Alpha virt. eigenvalues --   50.12249  50.12283  50.12298  50.13454  50.13461
 Alpha virt. eigenvalues --   50.15687  50.15978  50.16273  50.18766  50.19091
 Alpha virt. eigenvalues --   50.19219
          Condensed to atoms (all electrons):
 Mulliken charges:
               1
     1  O   -0.391009
     2  H    0.267832
     3  C   -0.448650
     4  H    0.163750
     5  C   -0.230152
     6  H    0.166847
     7  O   -0.428182
     8  C   -0.054843
     9  H    0.182905
    10  H    0.161653
    11  C   -0.084033
    12  H    0.159189
    13  H    0.147475
    14  C    0.361074
    15  C    0.339475
    16  O   -0.342761
    17  C    0.346054
    18  C    0.381149
    19  O   -0.345812
    20  C   -0.439159
    21  H    0.162059
    22  C   -0.270979
    23  H    0.165953
    24  O   -0.424321
    25  C   -0.424388
    26  H    0.164385
    27  C   -0.262861
    28  H    0.166932
    29  O   -0.421147
    30  C    0.116834
    31  H    0.180002
    32  H    0.180192
    33  C    0.303202
    34  C    0.340653
    35  C    0.095836
    36  H    0.179854
    37  H    0.180035
    38  O   -0.344816
    39  C    0.303120
    40  C    0.340694
    41  O   -0.344822
    42  C   -0.424497
    43  H    0.164383
    44  C   -0.262944
    45  H    0.166930
    46  O   -0.421155
    47  C   -0.438777
    48  H    0.162067
    49  C   -0.271057
    50  H    0.165956
    51  O   -0.424323
    52  C    0.095987
    53  H    0.180037
    54  H    0.179847
    55  C    0.345895
    56  C    0.381440
    57  C    0.116614
    58  H    0.180209
    59  H    0.179986
    60  O   -0.345683
    61  C    0.360805
    62  C    0.339661
    63  O   -0.342767
    64  C   -0.448595
    65  H    0.163746
    66  C   -0.230473
    67  H    0.166840
    68  O   -0.428196
    69  C   -0.054247
    70  H    0.161748
    71  H    0.182894
    72  C   -0.084989
    73  H    0.147563
    74  H    0.159128
    75  O   -0.391054
    76  H    0.267803
 Sum of Mulliken charges =  -0.00000
 Mulliken charges with hydrogens summed into heavy atoms:
               1
     1  O   -0.123178
     3  C   -0.284900
     5  C   -0.063306
     7  O   -0.428182
     8  C    0.289714
    11  C    0.222632
    14  C    0.361074
    15  C    0.339475
    16  O   -0.342761
    17  C    0.346054
    18  C    0.381149
    19  O   -0.345812
    20  C   -0.277101
    22  C   -0.105026
    24  O   -0.424321
    25  C   -0.260003
    27  C   -0.095929
    29  O   -0.421147
    30  C    0.477027
    33  C    0.303202
    34  C    0.340653
    35  C    0.455726
    38  O   -0.344816
    39  C    0.303120
    40  C    0.340694
    41  O   -0.344822
    42  C   -0.260114
    44  C   -0.096014
    46  O   -0.421155
    47  C   -0.276710
    49  C   -0.105101
    51  O   -0.424323
    52  C    0.455872
    55  C    0.345895
    56  C    0.381440
    57  C    0.476810
    60  O   -0.345683
    61  C    0.360805
    62  C    0.339661
    63  O   -0.342767
    64  C   -0.284849
    66  C   -0.063633
    68  O   -0.428196
    69  C    0.290394
    72  C    0.221702
    75  O   -0.123252
 Electronic spatial extent (au):  <R**2>=         369150.4413
 Charge=             -0.0000 electrons
 Dipole moment (field-independent basis, Debye):
    X=              2.1712    Y=              0.2437    Z=              1.4130  Tot=              2.6019
 Quadrupole moment (field-independent basis, Debye-Ang):
   XX=           -290.5576   YY=           -269.5871   ZZ=           -230.1577
   XY=             14.2053   XZ=             26.3865   YZ=            -20.0255
 Traceless Quadrupole moment (field-independent basis, Debye-Ang):
   XX=            -27.1234   YY=             -6.1530   ZZ=             33.2765
   XY=             14.2053   XZ=             26.3865   YZ=            -20.0255
 Octapole moment (field-independent basis, Debye-Ang**2):
  XXX=           4999.5608  YYY=            115.8159  ZZZ=          -8736.4225  XYY=           1540.1293
  XXY=            141.1420  XXZ=          -4297.9745  XZZ=           1846.6789  YZZ=           -746.5967
  YYZ=          -3502.3910  XYZ=            148.3358
 Hexadecapole moment (field-independent basis, Debye-Ang**3):
 XXXX=         -98404.6872 YYYY=         -22536.3260 ZZZZ=        -321309.4020 XXXY=         -16542.7339
 XXXZ=         107058.5892 YYYX=         -14635.8212 YYYZ=          25103.7822 ZZZX=          94368.1342
 ZZZY=           2961.6432 XXYY=         -18953.6115 XXZZ=         -98311.3709 YYZZ=         -67514.6621
 XXYZ=           9966.0958 YYXZ=          31039.3583 ZZXY=          -1450.6876
 N-N= 4.445598607607D+03 E-N=-1.424754353107D+04  KE= 2.282054520982D+03
 Calling FoFJK, ICntrl=      2127 FMM=T ISym2X=0 I1Cent= 0 IOpClX= 0 NMat=1 NMatS=1 NMatT=0.
 -------------------------------------------------------------------
 Center     Atomic                   Forces (Hartrees/Bohr)
 Number     Number              X              Y              Z
 -------------------------------------------------------------------
      1        8           0.001557765   -0.000124310    0.000558451
      2        1          -0.002427378    0.000247587    0.000240483
      3        6           0.000730721    0.002670532   -0.001607059
      4        1           0.000455481    0.001714060   -0.001009816
      5        6          -0.001181631    0.002579692    0.001382328
      6        1          -0.000659613    0.001774043    0.000720569
      7        8          -0.004437602    0.010205399    0.005035956
      8        6           0.000242237   -0.000490261   -0.000300112
      9        1           0.000888428    0.001074177    0.001442990
     10        1          -0.001768106    0.001071784   -0.000462555
     11        6           0.000265516   -0.000593204    0.000880758
     12        1           0.001549062   -0.000834757    0.000384783
     13        1          -0.000907325   -0.001084003   -0.001587147
     14        6          -0.001388328   -0.000603889    0.002276775
     15        6           0.004197963   -0.006662519   -0.005281188
     16        8           0.000143241    0.002261206   -0.000589729
     17        6           0.001380562    0.000578375   -0.002213993
     18        6          -0.004123315    0.006872730    0.005182082
     19        8          -0.000325509   -0.002340115    0.000791252
     20        6          -0.000765048   -0.002673586    0.001604118
     21        1          -0.000458585   -0.001706856    0.001013785
     22        6           0.001204257   -0.002564062   -0.001399086
     23        1           0.000663763   -0.001777482   -0.000714155
     24        8           0.004415336   -0.010236526   -0.005074032
     25        6           0.000759016    0.002676384   -0.001607207
     26        1           0.000461472    0.001709916   -0.001001245
     27        6          -0.001172370    0.002569530    0.001404606
     28        1          -0.000650943    0.001777774    0.000724686
     29        8          -0.004404630    0.010268824    0.005104324
     30        6          -0.000041842   -0.000437302    0.000162678
     31        1          -0.001804451    0.000888094   -0.000389205
     32        1           0.000926785    0.001191581    0.001376602
     33        6          -0.001385190   -0.000586374    0.002234721
     34        6           0.004133564   -0.006888491   -0.005232450
     35        6           0.000060268    0.000445159   -0.000166799
     36        1          -0.000932435   -0.001197057   -0.001376648
     37        1           0.001801911   -0.000889430    0.000386279
     38        8           0.000162577    0.002275980   -0.000607856
     39        6           0.001385580    0.000586499   -0.002236134
     40        6          -0.004108757    0.006882298    0.005256355
     41        8          -0.000158629   -0.002280218    0.000601413
     42        6          -0.000756879   -0.002666804    0.001598501
     43        1          -0.000463338   -0.001716754    0.001005338
     44        6           0.001173011   -0.002571471   -0.001398921
     45        1           0.000650750   -0.001777886   -0.000724579
     46        8           0.004374421   -0.010261370   -0.005125745
     47        6           0.000755719    0.002675026   -0.001609735
     48        1           0.000475191    0.001711974   -0.001002450
     49        6          -0.001170336    0.002573941    0.001422755
     50        1          -0.000642582    0.001777083    0.000725989
     51        8          -0.004372969    0.010247743    0.005109304
     52        6          -0.000044362   -0.000444222    0.000177136
     53        1           0.000930941    0.001188870    0.001376645
     54        1          -0.001802631    0.000895416   -0.000386971
     55        6          -0.001379170   -0.000582768    0.002220002
     56        6           0.004092614   -0.006888614   -0.005206937
     57        6           0.000044080    0.000442851   -0.000159608
     58        1           0.001804042   -0.000894504    0.000381904
     59        1          -0.000936937   -0.001188757   -0.001374523
[...]
 Alpha virt. eigenvalues --    1.26223   1.26258   1.26483   1.26680   1.26754
 Alpha virt. eigenvalues --    1.27009   1.27491   1.27991   1.28236   1.28715
 Alpha virt. eigenvalues --    1.28879   1.28900   1.29117   1.29223   1.29406
 Alpha virt. eigenvalues --    1.29569   1.29660   1.31041   1.31076   1.31242
 Alpha virt. eigenvalues --    1.31509   1.32409   1.32468   1.32882   1.33747
 Alpha virt. eigenvalues --    1.34333   1.34730   1.35118   1.35366   1.35818
 Alpha virt. eigenvalues --    1.36373   1.36881   1.37070   1.37554   1.37661
 Alpha virt. eigenvalues --    1.37871   1.38464   1.39002   1.39143   1.39290
 Alpha virt. eigenvalues --    1.39703   1.40427   1.40553   1.40725   1.40777
 Alpha virt. eigenvalues --    1.41432   1.41724   1.41838   1.41998   1.42362
 Alpha virt. eigenvalues --    1.42516   1.43652   1.44240   1.44967   1.46467
 Alpha virt. eigenvalues --    1.46538   1.48259   1.48721   1.48815   1.49964
 Alpha virt. eigenvalues --    1.50346   1.50676   1.51942   1.51956   1.53297
 Alpha virt. eigenvalues --    1.53562   1.53806   1.53937   1.54110   1.54217
 Alpha virt. eigenvalues --    1.56825   1.57188   1.57478   1.57737   1.57921
 Alpha virt. eigenvalues --    1.58944   1.59087   1.59093   1.59523   1.59544
 Alpha virt. eigenvalues --    1.59634   1.60196   1.60370   1.60555   1.60937
 Alpha virt. eigenvalues --    1.61094   1.61391   1.61551   1.61815   1.64021
 Alpha virt. eigenvalues --    1.64092   1.64273   1.64360   1.64549   1.64570
 Alpha virt. eigenvalues --    1.64848   1.65073   1.65744   1.65838   1.67033
 Alpha virt. eigenvalues --    1.67250   1.68476   1.68481   1.68841   1.69086
 Alpha virt. eigenvalues --    1.72373   1.72612   1.74134   1.74419   1.75329
 Alpha virt. eigenvalues --    1.75355   1.75911   1.76275   1.76522   1.76542
 Alpha virt. eigenvalues --    1.76728   1.76877   1.77259   1.77422   1.78205
 Alpha virt. eigenvalues --    1.78608   1.78634   1.78660   1.78764   1.79832
 Alpha virt. eigenvalues --    1.80485   1.80552   1.80620   1.80627   1.80750
 Alpha virt. eigenvalues --    1.81000   1.81312   1.83102   1.83256   1.83375
 Alpha virt. eigenvalues --    1.83635   1.83830   1.84628   1.84958   1.85275
 Alpha virt. eigenvalues --    1.85939   1.85962   1.86171   1.86660   1.86668
 Alpha virt. eigenvalues --    1.87377   1.87410   1.87534   1.87907   1.90315
 Alpha virt. eigenvalues --    1.90372   1.90731   1.91541   1.92426   1.93165
 Alpha virt. eigenvalues --    1.96605   1.96892   1.99160   1.99522   1.99681
 Alpha virt. eigenvalues --    1.99689   1.99717   2.00499   2.00783   2.01070
 Alpha virt. eigenvalues --    2.01210   2.01490   2.03085   2.03115   2.03395
 Alpha virt. eigenvalues --    2.03424   2.04722   2.05462   2.05766   2.12383
 Alpha virt. eigenvalues --    2.12453   2.12677   2.13471   2.13702   2.14013
 Alpha virt. eigenvalues --    2.14049   2.15245   2.15317   2.16252   2.16403
 Alpha virt. eigenvalues --    2.17385   2.17603   2.18477   2.19269   2.19811
 Alpha virt. eigenvalues --    2.20086   2.20224   2.20247   2.20568   2.21106
 Alpha virt. eigenvalues --    2.21488   2.22215   2.23765   2.24862   2.24969
 Alpha virt. eigenvalues --    2.25698   2.25837   2.25936   2.26157   2.26294
 Alpha virt. eigenvalues --    2.26861   2.28443   2.28478   2.31411   2.31786
 Alpha virt. eigenvalues --    2.32654   2.32707   2.33466   2.33888   2.34010
 Alpha virt. eigenvalues --    2.34860   2.35367   2.35475   2.36343   2.36905
 Alpha virt. eigenvalues --    2.37035   2.39382   2.40764   2.41947   2.42175
 Alpha virt. eigenvalues --    2.42423   2.42585   2.43521   2.44191   2.44242
 Alpha virt. eigenvalues --    2.45101   2.45155   2.45673   2.47033   2.48137
 Alpha virt. eigenvalues --    2.48146   2.48415   2.51737   2.51742   2.55837
 Alpha virt. eigenvalues --    2.55912   2.55950   2.56171   2.56429   2.56485
 Alpha virt. eigenvalues --    2.56809   2.57074   2.58536   2.58581   2.59141
 Alpha virt. eigenvalues --    2.59426   2.60077   2.60750   2.60988   2.61307
 Alpha virt. eigenvalues --    2.62091   2.63532   2.63997   2.66039   2.66161
 Alpha virt. eigenvalues --    2.66673   2.67833   2.67894   2.68837   2.69038
 Alpha virt. eigenvalues --    2.69281   2.70357   2.70602   2.70620   2.72046
 Alpha virt. eigenvalues --    2.72457   2.72609   2.72833   2.72920   2.73112
 Alpha virt. eigenvalues --    2.73372   2.73400   2.73875   2.74646   2.76731
 Alpha virt. eigenvalues --    2.77226   2.77373   2.78325   2.78441   2.78455
 Alpha virt. eigenvalues --    2.79078   2.79105   2.79518   2.79810   2.79907
 Alpha virt. eigenvalues --    2.80178   2.80181   2.80336   2.80509   2.80900
 Alpha virt. eigenvalues --    2.81618   2.83356   2.83721   2.85278   2.85319
 Alpha virt. eigenvalues --    2.85967   2.85986   2.86356   2.86430   2.86635
 Alpha virt. eigenvalues --    2.86685   2.92673   2.92907   2.92991   2.94048
 Alpha virt. eigenvalues --    2.94094   2.95959   2.96310   2.96429   2.96980
 Alpha virt. eigenvalues --    2.97226   2.97487   2.97558   2.97820   2.98681
 Alpha virt. eigenvalues --    2.98747   3.00012   3.00486   3.01134   3.02437
 Alpha virt. eigenvalues --    3.03910   3.07292   3.07747   3.08250   3.09749
 Alpha virt. eigenvalues --    3.10332   3.10764   3.11197   3.11265   3.11583
 Alpha virt. eigenvalues --    3.12163   3.12581   3.12917   3.12950   3.14312
 Alpha virt. eigenvalues --    3.14818   3.14847   3.14943   3.16251   3.16363
 Alpha virt. eigenvalues --    3.16807   3.16957   3.17793   3.17867   3.18183
 Alpha virt. eigenvalues --    3.21530   3.21571   3.21696   3.22497   3.22577
 Alpha virt. eigenvalues --    3.22775   3.23080   3.23553   3.23843   3.25933
 Alpha virt. eigenvalues --    3.25946   3.27277   3.27482   3.29431   3.29758
 Alpha virt. eigenvalues --    3.29871   3.30140   3.30214   3.30292   3.30322
 Alpha virt. eigenvalues --    3.30480   3.30709   3.31222   3.31227   3.32094
 Alpha virt. eigenvalues --    3.32198   3.32968   3.34646   3.34718   3.34725
 Alpha virt. eigenvalues --    3.35683   3.36208   3.36699   3.37012   3.37577
 Alpha virt. eigenvalues --    3.37815   3.38963   3.39518   3.41201   3.41638
 Alpha virt. eigenvalues --    3.41769   3.41960   3.42015   3.42108   3.42122
 Alpha virt. eigenvalues --    3.42140   3.42500   3.42703   3.43112   3.44103
 Alpha virt. eigenvalues --    3.44277   3.44380   3.44589   3.44875   3.44995
 Alpha virt. eigenvalues --    3.45160   3.46066   3.46798   3.46957   3.48440
 Alpha virt. eigenvalues --    3.48453   3.48718   3.48739   3.49180   3.50517
 Alpha virt. eigenvalues --    3.51141   3.51581   3.51769   3.51926   3.53134
 Alpha virt. eigenvalues --    3.53207   3.53637   3.53835   3.53875   3.54439
 Alpha virt. eigenvalues --    3.54657   3.54794   3.55007   3.55321   3.55427
 Alpha virt. eigenvalues --    3.55923   3.56154   3.56525   3.56648   3.58141
 Alpha virt. eigenvalues --    3.58504   3.58665   3.58670   3.58931   3.59891
 Alpha virt. eigenvalues --    3.60061   3.61869   3.61870   3.61964   3.62157
 Alpha virt. eigenvalues --    3.62163   3.62372   3.62495   3.63448   3.63566
 Alpha virt. eigenvalues --    3.64053   3.64451   3.64603   3.64759   3.65200
 Alpha virt. eigenvalues --    3.65214   3.65939   3.65975   3.66737   3.67012
 Alpha virt. eigenvalues --    3.67180   3.67238   3.69049   3.70660   3.70712
 Alpha virt. eigenvalues --    3.71064   3.71457   3.71511   3.71776   3.72086
 Alpha virt. eigenvalues --    3.72703   3.72706   3.75727   3.75835   3.76748
 Alpha virt. eigenvalues --    3.76921   3.76924   3.77097   3.77866   3.78251
 Alpha virt. eigenvalues --    3.78405   3.79262   3.79711   3.80585   3.86232
 Alpha virt. eigenvalues --    3.86613   3.86986   3.87920   3.88031   3.88311
 Alpha virt. eigenvalues --    3.89034   3.89135   3.89683   3.90878   3.91128
 Alpha virt. eigenvalues --    3.91622   3.92571   3.92602   3.93121   3.93445
 Alpha virt. eigenvalues --    3.93892   3.94562   3.94790   3.95405   3.98180
 Alpha virt. eigenvalues --    4.00996   4.01893   4.02221   4.02265   4.02714
 Alpha virt. eigenvalues --    4.03154   4.03878   4.04345   4.05633   4.06074
 Alpha virt. eigenvalues --    4.06929   4.07941   4.09494   4.10121   4.11028
 Alpha virt. eigenvalues --    4.11097   4.12344   4.12425   4.12873   4.12972
 Alpha virt. eigenvalues --    4.16334   4.16572   4.16767   4.17714   4.18401
 Alpha virt. eigenvalues --    4.19291   4.20429   4.20446   4.20474   4.20580
 Alpha virt. eigenvalues --    4.20697   4.20844   4.20863   4.22572   4.22947
 Alpha virt. eigenvalues --    4.22960   4.22971   4.23392   4.24397   4.24399
 Alpha virt. eigenvalues --    4.51332   4.51337   4.52600   4.52787   4.52792
 Alpha virt. eigenvalues --    4.56651   4.56749   4.64786   4.64794   4.65083
 Alpha virt. eigenvalues --    4.65258   4.65492   4.66073   4.81414   4.81542
 Alpha virt. eigenvalues --    4.81543   4.92788   4.93186   4.93837   5.10994
 Alpha virt. eigenvalues --    5.11337   5.11901   5.11911   5.12285   5.12546
 Alpha virt. eigenvalues --    5.17646   5.17676   5.18144   5.18146   5.18355
 Alpha virt. eigenvalues --    5.18494   5.20770   5.20795   5.31696   5.32025
 Alpha virt. eigenvalues --    5.32276   5.44240   5.45009   5.46573   5.47035
 Alpha virt. eigenvalues --    5.49914   5.49930   5.50473   5.51705   5.56041
 Alpha virt. eigenvalues --    5.56574   5.57652   5.57944   5.59186   5.59732
 Alpha virt. eigenvalues --    5.87977   5.87977   5.94074   5.95348   5.97218
 Alpha virt. eigenvalues --    5.99162   6.01059   6.02325   6.22835   6.23011
 Alpha virt. eigenvalues --    6.23138   6.23585   6.23623   6.23838   6.76857
 Alpha virt. eigenvalues --    6.76978   6.77010   6.77133   6.77392   6.77396
 Alpha virt. eigenvalues --    6.87800   6.87806   6.90301   6.90438   6.90593
 Alpha virt. eigenvalues --    6.91464   6.91744   6.91966   6.92452   6.92495
 Alpha virt. eigenvalues --    6.92871   6.92930   6.93085   6.93087   6.95963
 Alpha virt. eigenvalues --    6.95963   6.98597   6.98734   7.00493   7.00502
 Alpha virt. eigenvalues --    7.01433   7.01511   7.02018   7.02020   7.04786
 Alpha virt. eigenvalues --    7.04811   7.05686   7.05698   7.06285   7.06361
 Alpha virt. eigenvalues --    7.09442   7.09647   7.09717   7.10000   7.10271
 Alpha virt. eigenvalues --    7.10272   7.14064   7.14074   7.20826   7.21102
 Alpha virt. eigenvalues --    7.21193   7.21391   7.21408   7.21419   7.25619
 Alpha virt. eigenvalues --    7.25655   7.26009   7.27243   7.27265   7.27484
 Alpha virt. eigenvalues --    7.30828   7.30831   7.41188   7.41456   7.44754
 Alpha virt. eigenvalues --    7.45334   7.45979   7.46113   7.50573   7.50696
 Alpha virt. eigenvalues --    7.52339   7.53251   7.53541   7.53961  23.82857
 Alpha virt. eigenvalues --   23.82865  23.83120  24.00231  24.00249  24.03060
 Alpha virt. eigenvalues --   24.03255  24.03452  24.04267  24.04820  24.08707
 Alpha virt. eigenvalues --   24.08847  24.09225  24.09567  24.10380  24.10721
 Alpha virt. eigenvalues --   24.11082  24.13277  24.13692  24.13790  24.25114
 Alpha virt. eigenvalues --   24.25470  24.25845  24.25969  24.26205  24.26351
 Alpha virt. eigenvalues --   24.31516  24.31697  24.31897  24.32043  24.32465
 Alpha virt. eigenvalues --   24.32492  50.05513  50.05516  50.12436  50.12459
 Alpha virt. eigenvalues --   50.12477  50.12488  50.13651  50.13713  50.16293
 Alpha virt. eigenvalues --   50.16552  50.16827  50.19308  50.19703  50.19727
          Condensed to atoms (all electrons):
 Mulliken charges:
               1
     1  O   -0.389589
     2  H    0.266547
     3  C   -0.449603
     4  H    0.162475
     5  C   -0.231877
     6  H    0.165192
     7  O   -0.426732
     8  C   -0.053947
     9  H    0.182377
    10  H    0.160507
    11  C   -0.080244
    12  H    0.158263
    13  H    0.146874
    14  C    0.361196
    15  C    0.343969
    16  O   -0.342453
    17  C    0.353774
    18  C    0.380483
    19  O   -0.347282
    20  C   -0.446069
    21  H    0.160659
    22  C   -0.281188
    23  H    0.164399
    24  O   -0.422944
    25  C   -0.381142
    26  H    0.163388
    27  C   -0.382267
    28  H    0.166063
    29  O   -0.426982
    30  C    0.125877
    31  H    0.178986
    32  H    0.179200
    33  C    0.279878
    34  C    0.433694
    35  C    0.112868
    36  H    0.178423
    37  H    0.178608
    38  O   -0.341360
    39  C    0.279899
    40  C    0.433712
    41  O   -0.341359
    42  C   -0.381169
    43  H    0.163385
    44  C   -0.382295
    45  H    0.166063
    46  O   -0.426987
    47  C   -0.445634
    48  H    0.160670
    49  C   -0.281298
    50  H    0.164404
    51  O   -0.422943
    52  C    0.112913
    53  H    0.178621
    54  H    0.178410
    55  C    0.353555
    56  C    0.380773
    57  C    0.125876
    58  H    0.179194
    59  H    0.178988
    60  O   -0.347140
    61  C    0.360917
    62  C    0.344085
    63  O   -0.342456
    64  C   -0.449490
    65  H    0.162472
    66  C   -0.232142
    67  H    0.165187
    68  O   -0.426741
    69  C   -0.053212
    70  H    0.160575
    71  H    0.182377
    72  C   -0.081245
    73  H    0.146962
    74  H    0.158196
    75  O   -0.389642
    76  H    0.266500
 Sum of Mulliken charges =  -0.00000
 Mulliken charges with hydrogens summed into heavy atoms:
               1
     1  O   -0.123043
     3  C   -0.287128
     5  C   -0.066685
     7  O   -0.426732
     8  C    0.288937
    11  C    0.224892
    14  C    0.361196
    15  C    0.343969
    16  O   -0.342453
    17  C    0.353774
    18  C    0.380483
    19  O   -0.347282
    20  C   -0.285411
    22  C   -0.116789
    24  O   -0.422944
    25  C   -0.217754
    27  C   -0.216203
    29  O   -0.426982
    30  C    0.484062
    33  C    0.279878
    34  C    0.433694
    35  C    0.469899
    38  O   -0.341360
    39  C    0.279899
    40  C    0.433712
    41  O   -0.341359
    42  C   -0.217784
    44  C   -0.216232
    46  O   -0.426987
    47  C   -0.284964
    49  C   -0.116893
    51  O   -0.422943
    52  C    0.469943
    55  C    0.353555
    56  C    0.380773
    57  C    0.484058
    60  O   -0.347140
    61  C    0.360917
    62  C    0.344085
    63  O   -0.342456
    64  C   -0.287018
    66  C   -0.066955
    68  O   -0.426741
    69  C    0.289740
    72  C    0.223913
    75  O   -0.123142
 Electronic spatial extent (au):  <R**2>=         368826.1359
 Charge=             -0.0000 electrons
 Dipole moment (field-independent basis, Debye):
    X=              2.1324    Y=              0.2440    Z=              1.3869  Tot=              2.5554
 Quadrupole moment (field-independent basis, Debye-Ang):
   XX=           -290.1323   YY=           -270.2743   ZZ=           -231.9256
   XY=             12.9536   XZ=             26.7472   YZ=            -17.9156
 Traceless Quadrupole moment (field-independent basis, Debye-Ang):
   XX=            -26.0216   YY=             -6.1636   ZZ=             32.1852
   XY=             12.9536   XZ=             26.7472   YZ=            -17.9156
 Octapole moment (field-independent basis, Debye-Ang**2):
  XXX=           4984.8421  YYY=            115.6894  ZZZ=          -8812.2018  XYY=           1540.8634
  XXY=            148.0122  XXZ=          -4291.6125  XZZ=           1866.2852  YZZ=           -684.3712
  YYZ=          -3513.4611  XYZ=            123.9804
 Hexadecapole moment (field-independent basis, Debye-Ang**3):
 XXXX=         -98067.1211 YYYY=         -22515.4028 ZZZZ=        -323879.7820 XXXY=         -16615.4928
 XXXZ=         106765.2961 YYYX=         -14681.9436 YYYZ=          25179.7826 ZZZX=          95147.4147
 ZZZY=           4790.6002 XXYY=         -19008.8149 XXZZ=         -98296.1145 YYZZ=         -67912.4894
 XXYZ=          10235.5734 YYXZ=          31196.4791 ZZXY=          -2201.3528
 N-N= 4.455343493363D+03 E-N=-1.426755996775D+04  KE= 2.282722406615D+03
 1\1\GINC-R1I1N0\FOpt\RM062X\6-311+G(2d,p)\C32H30O14\HMAYES\21-Jun-2019
 \0\\# opt=(modredundant) m062x/6-311+g(2d,p) nosymm scf=xqc\\pet trime
 r from Brandon, opt with m062x/6-31+g(d,p)\\0,1\O,3.3118657104,6.38757
 60091,-1.443035388\H,4.232640143,6.1640801267,-1.2810753543\C,-0.37365
 80066,2.4592584967,4.9780987112\H,-0.594758433,1.5302224395,5.48487977
 97\C,0.3796942155,2.4650346565,3.8164683801\H,0.7628588225,1.546966109
 5,3.3907532181\O,1.9029158227,2.5986327459,1.44705476\C,2.4530504465,4
 .8348899083,0.1866630199\H,1.9477689196,4.2494491761,-0.582257249\H,3.
 4270429688,4.3776508097,0.377746245\C,2.5898229208,6.2844724865,-0.234
 558094\H,1.6029208813,6.7060071721,-0.4251145576\H,3.0546818445,6.8648
 951893,0.5687466044\C,0.6564973161,3.6676584345,3.1739675175\C,1.47324
 86375,3.6130801839,1.9259572396\O,-1.8753882005,2.5034275741,7.2791922
 982\C,-0.8495959475,3.6612837805,5.4957943161\C,-1.664466345,3.7169687
 929,6.7430956523\O,1.6817839106,4.8243818755,1.3909074481\C,0.17980550
 56,4.8694270104,3.6913525056\H,0.4003381832,5.7978132911,3.1831870443\
 C,-0.5731800426,4.8640866067,4.8531392751\H,-0.9566022728,5.7822698537
 ,5.2783934635\O,-2.0921113985,4.7290252494,7.2277943854\C,-5.595853054
 6,-1.3141032203,13.6791718325\H,-5.8237740809,-2.2435674662,14.1820971
 625\C,-4.8456169828,-1.3093251068,12.5156159886\H,-4.4716528432,-2.228
 742357,12.084682905\O,-3.3255416691,-1.1753936661,10.1422991086\C,-2.7
 607543695,1.0536873344,8.8950720143\H,-1.7791890376,0.6184938392,9.086
 7145601\H,-3.2595612596,0.4552709502,8.1317893429\C,-4.560198175,-0.10
 57225434,11.8785044371\C,-3.748158845,-0.1622819859,10.628911099\C,-2.
 6507455753,2.5008247351,8.4773472198\H,-2.1534992147,3.0994236366,9.24
 15698285\H,-3.6322497443,2.9355496554,8.2843396424\O,-7.0891490858,-1.
 2677567237,15.9853629994\C,-6.0597217875,-0.1104503378,14.203911412\C,
 -6.8712885241,-0.0538529432,15.453810751\O,-3.5342297286,1.0511980311,
 10.0948005258\C,-5.0242555631,1.0979112602,12.4031216349\H,-4.79658372
 92,2.0273490156,11.9000337244\C,-5.7742397444,1.0931593707,13.56684074
 98\H,-6.1480555361,2.0125916768,13.9978707452\O,-7.2904292934,0.959616
 3128,15.942681662\C,-10.8251643123,-5.0889581172,22.3742308266\H,-11.0
 581557056,-6.0187312852,22.874238618\C,-10.0740769364,-5.083682125,21.
 2112196803\H,-9.7038536305,-6.0032286139,20.7773105274\O,-8.552124112,
 -4.9479920862,18.8385545533\C,-7.9793417859,-2.7181688843,17.598398630
 4\H,-8.4815233489,-3.3114315531,16.8332623\H,-6.9998085076,-3.15893051
 17,17.7877852226\C,-9.7831904764,-3.8792309528,20.578085236\C,-8.97118
 32614,-3.9350739129,19.3289231811\C,-7.8622576013,-1.2702513148,17.185
 3283299\H,-8.8416736704,-0.8294953655,16.9955054788\H,-7.3601229206,-0
 .6768348657,17.9503567648\O,-12.3133977731,-5.0428434934,24.6834565123
 \C,-11.2846730495,-3.8854133107,22.9028832463\C,-12.0979438004,-3.8306
 632093,24.1531622231\O,-8.7520554306,-2.7205930094,18.7982614092\C,-10
 .2430165156,-2.6755460186,21.1063514357\H,-10.0115719891,-1.7453498273
 ,20.6063573264\C,-10.994022362,-2.6812070395,22.2695021754\H,-11.36516
 20891,-1.7618970279,22.7031132824\O,-12.516171704,-2.8150522494,24.639
 6723647\C,-13.0959415267,-5.0550232106,25.8803811892\H,-12.6101258866,
 -4.4325908958,26.6358412413\H,-14.0841387825,-4.6388725716,25.68128985
 61\C,-13.1936892234,-6.5003777801,26.3262804308\H,-12.1912433157,-6.91
 36148301,26.4767821733\H,-13.6872371238,-7.0902232763,25.5539783877\O,
 -13.9880665215,-6.6124509467,27.4876616518\H,-13.5154643953,-6.2297191
 611,28.2321051777\\Version=ES64L-G16RevB.01\HF=-2290.5074961\RMSD=6.03
 4e-09\RMSF=2.179e-06\Dipole=0.8389515,0.0959841,0.5456378\Quadrupole=-
 19.3464048,-4.5824732,23.928878,9.6306486,19.8858597,-13.3198442\PG=C0
 1 [X(C32H30O14)]\\@


 E PUR SI MUOVE    -- GALILEO GALILEI
 Job cpu time:       1 days  0 hours 42 minutes 46.8 seconds.
 Elapsed time:       0 days  0 hours 41 minutes 23.8 seconds.
 File lengths (MBytes):  RWF=   1184 Int=      0 D2E=      0 Chk=    136 Scr=      1
 Normal termination of Gaussian 16 at Fri Jun 21 13:23:21 2019.
