 Entering Gaussian System, Link 0=g16
 Initial command:
 /nopt/nrel/apps/gaussian/g16B/g16/l1.exe "/dev/shm/Gau-117856.inp" -scrdir="/dev/shm/"
 Default is to use a total of  36 processors:
                               36 via shared-memory
                                1 via Linda
 Entering Link 1 = /nopt/nrel/apps/gaussian/g16B/g16/l1.exe PID=    117857.
  
 Copyright (c) 1988-2017, Gaussian, Inc.  All Rights Reserved.
  
 This is part of the Gaussian(R) 16 program.  It is based on
 the Gaussian(R) 09 system (copyright 2009, Gaussian, Inc.),
 the Gaussian(R) 03 system (copyright 2003, Gaussian, Inc.),
 the Gaussian(R) 98 system (copyright 1998, Gaussian, Inc.),PerFluoroBenzene
 the Gaussian(R) 94 system (copyright 1995, Gaussian, Inc.),
 the Gaussian 92(TM) system (copyright 1992, Gaussian, Inc.),
 the Gaussian 90(TM) system (copyright 1990, Gaussian, Inc.),
 the Gaussian 88(TM) system (copyright 1988, Gaussian, Inc.),
 the Gaussian 86(TM) system (copyright 1986, Carnegie Mellon
 University), and the Gaussian 82(TM) system (copyright 1983,
 Carnegie Mellon University). Gaussian is a federally registered
 trademark of Gaussian, Inc.
  
 This software contains proprietary and confidential information,
 including trade secrets, belonging to Gaussian, Inc.
  
 This software is provided under written license and may be
 used, copied, transmitted, or stored only in accord with that
 written license.
  
 The following legend is applicable only to US Government
 contracts under FAR:
  
                    RESTRICTED RIGHTS LEGEND
  
 Use, reproduction and disclosure by the US Government is
 subject to restrictions as set forth in subparagraphs (a)
 and (c) of the Commercial Computer Software - Restricted
 Rights clause in FAR 52.227-19.
  
 Gaussian, Inc.
 340 Quinnipiac St., Bldg. 40, Wallingford CT 06492
  
  
 ---------------------------------------------------------------
 Warning -- This program may not be used in any manner that
 competes with the business of Gaussian, Inc. or will provide
 assistance to any competitor of Gaussian, Inc.  The licensee
 of this program is prohibited from giving any competitor of
 Gaussian, Inc. access to this program.  By using this program,
 the user acknowledges that Gaussian, Inc. is engaged in the
 business of creating and licensing software in the field of
 computational chemistry and represents and warrants to the
 licensee that it is not a competitor of Gaussian, Inc. and that
 it will not use this program in any manner prohibited above.
 ---------------------------------------------------------------
  

 Cite this work as:
 Gaussian 16, Revision B.01,
 M. J. Frisch, G. W. Trucks, H. B. Schlegel, G. E. Scuseria, 
 M. A. Robb, J. R. Cheeseman, G. Scalmani, V. Barone, 
 G. A. Petersson, H. Nakatsuji, X. Li, M. Caricato, A. V. Marenich, 
 J. Bloino, B. G. Janesko, R. Gomperts, B. Mennucci, H. P. Hratchian, 
 J. V. Ortiz, A. F. Izmaylov, J. L. Sonnenberg, D. Williams-Young, 
 F. Ding, F. Lipparini, F. Egidi, J. Goings, B. Peng, A. Petrone, 
 T. Henderson, D. Ranasinghe, V. G. Zakrzewski, J. Gao, N. Rega, 
 G. Zheng, W. Liang, M. Hada, M. Ehara, K. Toyota, R. Fukuda, 
 J. Hasegawa, M. Ishida, T. Nakajima, Y. Honda, O. Kitao, H. Nakai, 
 T. Vreven, K. Throssell, J. A. Montgomery, Jr., J. E. Peralta, 
 F. Ogliaro, M. J. Bearpark, J. J. Heyd, E. N. Brothers, K. N. Kudin, 
 V. N. Staroverov, T. A. Keith, R. Kobayashi, J. Normand, 
 K. Raghavachari, A. P. Rendell, J. C. Burant, S. S. Iyengar, 
 J. Tomasi, M. Cossi, J. M. Millam, M. Klene, C. Adamo, R. Cammi, 
 J. W. Ochterski, R. L. Martin, K. Morokuma, O. Farkas, 
 J. B. Foresman, and D. J. Fox, Gaussian, Inc., Wallingford CT, 2016.
 
 ******************************************
 Gaussian 16:  ES64L-G16RevB.01 20-Dec-2017
                 3-Jul-2019 
 ******************************************
 %RWF=/dev/shm/,5GB,/tmp/scratch/936514/,-1
 %NoSave
 %OldChk=pet_mono_843_tzvp_ace.chk
 %Chk=/dev/shm/pet_mono_843_tzvp_pfb.chk
 Copying data from "pet_mono_843_tzvp_ace.chk" to current chk file "/dev/shm/pet_mono_843_tzvp_pfb.chk"
 IOpt=  2 FromEx=T IUOpen= 4 IOptOp= 5 NList=   0 IFRang= 0 IUIn= 4 IUOut= 2.
 Default route: CacheSize=180224 MaxDisk=256GB
 ----------------------------------------------------------------------
 # geom=allcheck guess=read m062x/Def2TZVP nosymm scf=xqc opt freq=NoRa
 man SCRF=(Solvent=PerFluoroBenzene)
 ----------------------------------------------------------------------
 1/4=180224,18=20,19=15,26=3,29=7,38=1/1,3;
 2/4=180224,9=110,12=2,15=1,40=1/2;
 3/4=180224,5=44,7=101,11=2,14=-4,25=1,30=1,70=2201,71=1,72=163,74=-55,116=-2/1,2,3;
 4/4=180224,5=1/1;
 5/4=180224,5=2,8=3,13=1,38=6,53=163/2,8;
 6/4=180224,7=2,8=2,9=2,10=2,28=1/1;
 7/4=180224,30=1/1,2,3,16;
 1/4=180224,18=20,19=15,26=3/3(2);
 2/4=180224,9=110,15=1/2;
 99/4=180224/99;
 2/4=180224,9=110,15=1/2;
 3/4=180224,5=44,7=101,11=2,14=-2,25=1,30=1,70=2205,71=1,72=163,74=-55/1,2,3;
 4/4=180224,5=5,16=3,69=1/1;
 5/4=180224,5=2,8=3,13=1,38=5,53=163/2,8;
 7/4=180224,30=1/1,2,3,16;
 1/4=180224,18=20,19=15,26=3/3(-5);
 2/4=180224,9=110,15=1/2;
 6/4=180224,7=2,8=2,9=2,10=2,19=2,28=1/1;
 99/4=180224,9=1/99;
 Structure from the checkpoint file:  "/dev/shm/pet_mono_843_tzvp_pfb.chk"
 --------------------------
 narrow results from confab
 --------------------------
 Charge =  0 Multiplicity = 1
 Redundant internal coordinates found in file.  (old form).
 O,0,4.8962708282,2.5950628756,0.5933952205
 H,0,4.0398609164,2.1809387668,0.769805755
 C,0,-0.928905732,2.2271500779,4.0936030801
 H,0,-1.4802219888,1.3198611481,4.2981732519
 C,0,0.1134691779,2.2355575653,3.1852077513
 H,0,0.3992355473,1.3349158387,2.659699042
 O,0,2.2206660387,2.3861014157,1.3260712618
 C,0,3.5824939092,4.6634407331,0.8331536623
 H,0,3.7852763548,5.7308346047,0.8145385025
 H,0,3.1796434877,4.3510566005,-0.1313828122
 C,0,4.8518229784,3.8900189755,1.1534018621
 H,0,5.6946187184,4.4380076737,0.7313459654
 H,0,4.9827287831,3.8642632558,2.2414573508
 C,0,0.8080698903,3.4166417759,2.9402970579
 C,0,1.9242220332,3.3793191142,1.9523386418
 O,0,-2.6879157592,4.521272643,6.2649589044
 C,0,-1.2776141125,3.4001162257,4.7570419931
 C,0,-2.4066639318,3.3441967804,5.7293916246
 O,0,2.551562364,4.5387263313,1.835092881
 C,0,0.4605774242,4.5899186607,3.6033323883
 H,0,1.0049261666,5.5023364192,3.4073414896
 C,0,-0.5843031654,4.5817314772,4.5125204176
 H,0,-0.8614724803,5.4877197183,5.0317892731
 O,0,-3.0003507154,2.3229429656,5.9959808461
 C,0,-5.1079496691,4.3477418824,6.8045616573
 H,0,-5.1870453193,4.7220004535,5.7772651502
 H,0,-5.7833859742,4.9373156695,7.4248708719
 C,0,-3.6900086989,4.5824424881,7.3012617027
 H,0,-3.436868965,3.8642653642,8.0825315848
 H,0,-3.5877530758,5.592630223,7.6884375418
 O,0,-5.5407169013,3.0080125232,6.9047851847
 H,0,-4.8292681295,2.4544597529,6.5537308956
 Recover connectivity data from disk.

 GradGradGradGradGradGradGradGradGradGradGradGradGradGradGradGradGradGrad
 Berny optimization.
 Initialization pass.
                           ----------------------------
                           !    Initial Parameters    !
                           ! (Angstroms and Degrees)  !
 --------------------------                            --------------------------
 ! Name  Definition              Value          Derivative Info.                !
 --------------------------------------------------------------------------------
 ! R1    R(1,2)                  0.9675         estimate D2E/DX2                !
 ! R2    R(1,11)                 1.4116         estimate D2E/DX2                !
 ! R3    R(3,4)                  1.0812         estimate D2E/DX2                !
 ! R4    R(3,5)                  1.3827         estimate D2E/DX2                !
 ! R5    R(3,17)                 1.392          estimate D2E/DX2                !
 ! R6    R(5,6)                  1.0812         estimate D2E/DX2                !
 ! R7    R(5,14)                 1.3919         estimate D2E/DX2                !
 ! R8    R(7,15)                 1.211          estimate D2E/DX2                !
 ! R9    R(8,9)                  1.0866         estimate D2E/DX2                !
 ! R10   R(8,10)                 1.091          estimate D2E/DX2                !
 ! R11   R(8,11)                 1.5205         estimate D2E/DX2                !
 ! R12   R(8,19)                 1.443          estimate D2E/DX2                !
 ! R13   R(11,12)                1.0903         estimate D2E/DX2                !
 ! R14   R(11,13)                1.0962         estimate D2E/DX2                !
 ! R15   R(14,15)                1.4911         estimate D2E/DX2                !
 ! R16   R(14,20)                1.3917         estimate D2E/DX2                !
 ! R17   R(15,19)                1.3235         estimate D2E/DX2                !
 ! R18   R(16,18)                1.3234         estimate D2E/DX2                !
 ! R19   R(16,28)                1.4429         estimate D2E/DX2                !
 ! R20   R(17,18)                1.4911         estimate D2E/DX2                !
 ! R21   R(17,22)                1.3916         estimate D2E/DX2                !
 ! R22   R(18,24)                1.211          estimate D2E/DX2                !
 ! R23   R(20,21)                1.0804         estimate D2E/DX2                !
 ! R24   R(20,22)                1.3851         estimate D2E/DX2                !
 ! R25   R(22,23)                1.0804         estimate D2E/DX2                !
 ! R26   R(25,26)                1.0962         estimate D2E/DX2                !
 ! R27   R(25,27)                1.0902         estimate D2E/DX2                !
 ! R28   R(25,28)                1.5206         estimate D2E/DX2                !
 ! R29   R(25,31)                1.4115         estimate D2E/DX2                !
 ! R30   R(28,29)                1.091          estimate D2E/DX2                !
 ! R31   R(28,30)                1.0867         estimate D2E/DX2                !
 ! R32   R(31,32)                0.9674         estimate D2E/DX2                !
 ! A1    A(2,1,11)             107.0057         estimate D2E/DX2                !
 ! A2    A(4,3,5)              120.919          estimate D2E/DX2                !
 ! A3    A(4,3,17)             119.2884         estimate D2E/DX2                !
 ! A4    A(5,3,17)             119.7926         estimate D2E/DX2                !
 ! A5    A(3,5,6)              120.8982         estimate D2E/DX2                !
 ! A6    A(3,5,14)             119.7994         estimate D2E/DX2                !
 ! A7    A(6,5,14)             119.3024         estimate D2E/DX2                !
 ! A8    A(9,8,10)             109.5743         estimate D2E/DX2                !
 ! A9    A(9,8,11)             110.3327         estimate D2E/DX2                !
 ! A10   A(9,8,19)             103.3038         estimate D2E/DX2                !
 ! A11   A(10,8,11)            110.4154         estimate D2E/DX2                !
 ! A12   A(10,8,19)            108.9849         estimate D2E/DX2                !
 ! A13   A(11,8,19)            113.9671         estimate D2E/DX2                !
 ! A14   A(1,11,8)             114.1653         estimate D2E/DX2                !
 ! A15   A(1,11,12)            106.4498         estimate D2E/DX2                !
 ! A16   A(1,11,13)            111.621          estimate D2E/DX2                !
 ! A17   A(8,11,12)            107.9459         estimate D2E/DX2                !
 ! A18   A(8,11,13)            108.705          estimate D2E/DX2                !
 ! A19   A(12,11,13)           107.6816         estimate D2E/DX2                !
 ! A20   A(5,14,15)            117.9629         estimate D2E/DX2                !
 ! A21   A(5,14,20)            120.4586         estimate D2E/DX2                !
 ! A22   A(15,14,20)           121.5785         estimate D2E/DX2                !
 ! A23   A(7,15,14)            123.1218         estimate D2E/DX2                !
 ! A24   A(7,15,19)            123.8238         estimate D2E/DX2                !
 ! A25   A(14,15,19)           113.0543         estimate D2E/DX2                !
 ! A26   A(18,16,28)           118.4218         estimate D2E/DX2                !
 ! A27   A(3,17,18)            117.9624         estimate D2E/DX2                !
 ! A28   A(3,17,22)            120.4599         estimate D2E/DX2                !
 ! A29   A(18,17,22)           121.5777         estimate D2E/DX2                !
 ! A30   A(16,18,17)           113.0454         estimate D2E/DX2                !
 ! A31   A(16,18,24)           123.8342         estimate D2E/DX2                !
 ! A32   A(17,18,24)           123.1203         estimate D2E/DX2                !
 ! A33   A(8,19,15)            118.4168         estimate D2E/DX2                !
 ! A34   A(14,20,21)           119.9826         estimate D2E/DX2                !
 ! A35   A(14,20,22)           119.7417         estimate D2E/DX2                !
 ! A36   A(21,20,22)           120.2757         estimate D2E/DX2                !
 ! A37   A(17,22,20)           119.7477         estimate D2E/DX2                !
 ! A38   A(17,22,23)           119.9833         estimate D2E/DX2                !
 ! A39   A(20,22,23)           120.269          estimate D2E/DX2                !
 ! A40   A(26,25,27)           107.6905         estimate D2E/DX2                !
 ! A41   A(26,25,28)           108.7048         estimate D2E/DX2                !
 ! A42   A(26,25,31)           111.6221         estimate D2E/DX2                !
 ! A43   A(27,25,28)           107.9617         estimate D2E/DX2                !
 ! A44   A(27,25,31)           106.4359         estimate D2E/DX2                !
 ! A45   A(28,25,31)           114.1551         estimate D2E/DX2                !
 ! A46   A(16,28,25)           113.9831         estimate D2E/DX2                !
 ! A47   A(16,28,29)           108.9824         estimate D2E/DX2                !
 ! A48   A(16,28,30)           103.2947         estimate D2E/DX2                !
 ! A49   A(25,28,29)           110.4059         estimate D2E/DX2                !
 ! A50   A(25,28,30)           110.341          estimate D2E/DX2                !
 ! A51   A(29,28,30)           109.5708         estimate D2E/DX2                !
 ! A52   A(25,31,32)           106.9705         estimate D2E/DX2                !
 ! D1    D(2,1,11,8)           -46.3206         estimate D2E/DX2                !
 ! D2    D(2,1,11,12)         -165.3073         estimate D2E/DX2                !
 ! D3    D(2,1,11,13)           77.4549         estimate D2E/DX2                !
 ! D4    D(4,3,5,6)              0.0252         estimate D2E/DX2                !
 ! D5    D(4,3,5,14)          -179.9577         estimate D2E/DX2                !
 ! D6    D(17,3,5,6)          -179.984          estimate D2E/DX2                !
 ! D7    D(17,3,5,14)            0.0331         estimate D2E/DX2                !
 ! D8    D(4,3,17,18)            0.0782         estimate D2E/DX2                !
 ! D9    D(4,3,17,22)          179.9892         estimate D2E/DX2                !
 ! D10   D(5,3,17,18)         -179.9127         estimate D2E/DX2                !
 ! D11   D(5,3,17,22)           -0.0018         estimate D2E/DX2                !
 ! D12   D(3,5,14,15)         -179.966          estimate D2E/DX2                !
 ! D13   D(3,5,14,20)           -0.0136         estimate D2E/DX2                !
 ! D14   D(6,5,14,15)            0.0508         estimate D2E/DX2                !
 ! D15   D(6,5,14,20)         -179.9968         estimate D2E/DX2                !
 ! D16   D(9,8,11,1)          -150.7211         estimate D2E/DX2                !
 ! D17   D(9,8,11,12)          -32.5851         estimate D2E/DX2                !
 ! D18   D(9,8,11,13)           83.9483         estimate D2E/DX2                !
 ! D19   D(10,8,11,1)          -29.4451         estimate D2E/DX2                !
 ! D20   D(10,8,11,12)          88.6909         estimate D2E/DX2                !
 ! D21   D(10,8,11,13)        -154.7757         estimate D2E/DX2                !
 ! D22   D(19,8,11,1)           93.6025         estimate D2E/DX2                !
 ! D23   D(19,8,11,12)        -148.2615         estimate D2E/DX2                !
 ! D24   D(19,8,11,13)         -31.7282         estimate D2E/DX2                !
 ! D25   D(9,8,19,15)          169.2896         estimate D2E/DX2                !
 ! D26   D(10,8,19,15)          52.8394         estimate D2E/DX2                !
 ! D27   D(11,8,19,15)         -70.9839         estimate D2E/DX2                !
 ! D28   D(5,14,15,7)            2.5626         estimate D2E/DX2                !
 ! D29   D(5,14,15,19)        -177.395          estimate D2E/DX2                !
 ! D30   D(20,14,15,7)        -177.3893         estimate D2E/DX2                !
 ! D31   D(20,14,15,19)          2.6531         estimate D2E/DX2                !
 ! D32   D(5,14,20,21)        -179.9991         estimate D2E/DX2                !
 ! D33   D(5,14,20,22)          -0.0376         estimate D2E/DX2                !
 ! D34   D(15,14,20,21)         -0.0484         estimate D2E/DX2                !
 ! D35   D(15,14,20,22)        179.9131         estimate D2E/DX2                !
 ! D36   D(7,15,19,8)            4.9127         estimate D2E/DX2                !
 ! D37   D(14,15,19,8)        -175.1301         estimate D2E/DX2                !
 ! D38   D(28,16,18,17)       -175.1124         estimate D2E/DX2                !
 ! D39   D(28,16,18,24)          4.9046         estimate D2E/DX2                !
 ! D40   D(18,16,28,25)        -70.7623         estimate D2E/DX2                !
 ! D41   D(18,16,28,29)         53.0581         estimate D2E/DX2                !
 ! D42   D(18,16,28,30)        169.4988         estimate D2E/DX2                !
 ! D43   D(3,17,18,16)        -177.5847         estimate D2E/DX2                !
 ! D44   D(3,17,18,24)           2.3984         estimate D2E/DX2                !
 ! D45   D(22,17,18,16)          2.5054         estimate D2E/DX2                !
 ! D46   D(22,17,18,24)       -177.5114         estimate D2E/DX2                !
 ! D47   D(3,17,22,20)          -0.0494         estimate D2E/DX2                !
 ! D48   D(3,17,22,23)         179.9996         estimate D2E/DX2                !
 ! D49   D(18,17,22,20)        179.8582         estimate D2E/DX2                !
 ! D50   D(18,17,22,23)         -0.0927         estimate D2E/DX2                !
 ! D51   D(14,20,22,17)          0.0687         estimate D2E/DX2                !
 ! D52   D(14,20,22,23)       -179.9805         estimate D2E/DX2                !
 ! D53   D(21,20,22,17)       -179.9699         estimate D2E/DX2                !
 ! D54   D(21,20,22,23)         -0.0192         estimate D2E/DX2                !
 ! D55   D(26,25,28,16)        -31.3781         estimate D2E/DX2                !
 ! D56   D(26,25,28,29)       -154.4267         estimate D2E/DX2                !
 ! D57   D(26,25,28,30)         84.3025         estimate D2E/DX2                !
 ! D58   D(27,25,28,16)       -147.9305         estimate D2E/DX2                !
 ! D59   D(27,25,28,29)         89.0209         estimate D2E/DX2                !
 ! D60   D(27,25,28,30)        -32.2499         estimate D2E/DX2                !
 ! D61   D(31,25,28,16)         93.9464         estimate D2E/DX2                !
 ! D62   D(31,25,28,29)        -29.1022         estimate D2E/DX2                !
 ! D63   D(31,25,28,30)       -150.3731         estimate D2E/DX2                !
 ! D64   D(26,25,31,32)         77.0536         estimate D2E/DX2                !
 ! D65   D(27,25,31,32)       -165.7056         estimate D2E/DX2                !
 ! D66   D(28,25,31,32)        -46.7146         estimate D2E/DX2                !
 --------------------------------------------------------------------------------
 Trust Radius=3.00D-01 FncErr=1.00D-07 GrdErr=1.00D-06 EigMax=2.50D+02 EigMin=1.00D-04
 Number of steps in this run=    160 maximum allowed number of steps=    192.
 GradGradGradGradGradGradGradGradGradGradGradGradGradGradGradGradGradGrad

                          Input orientation:                          
 ---------------------------------------------------------------------
 Center     Atomic      Atomic             Coordinates (Angstroms)
 Number     Number       Type             X           Y           Z
 ---------------------------------------------------------------------
      1          8           0        4.896271    2.595063    0.593395
      2          1           0        4.039861    2.180939    0.769806
      3          6           0       -0.928906    2.227150    4.093603
      4          1           0       -1.480222    1.319861    4.298173
      5          6           0        0.113469    2.235558    3.185208
      6          1           0        0.399236    1.334916    2.659699
      7          8           0        2.220666    2.386101    1.326071
      8          6           0        3.582494    4.663441    0.833154
      9          1           0        3.785276    5.730835    0.814539
     10          1           0        3.179643    4.351057   -0.131383
     11          6           0        4.851823    3.890019    1.153402
     12          1           0        5.694619    4.438008    0.731346
     13          1           0        4.982729    3.864263    2.241457
     14          6           0        0.808070    3.416642    2.940297
     15          6           0        1.924222    3.379319    1.952339
     16          8           0       -2.687916    4.521273    6.264959
     17          6           0       -1.277614    3.400116    4.757042
     18          6           0       -2.406664    3.344197    5.729392
     19          8           0        2.551562    4.538726    1.835093
     20          6           0        0.460577    4.589919    3.603332
     21          1           0        1.004926    5.502336    3.407341
     22          6           0       -0.584303    4.581731    4.512520
     23          1           0       -0.861472    5.487720    5.031789
     24          8           0       -3.000351    2.322943    5.995981
     25          6           0       -5.107950    4.347742    6.804562
     26          1           0       -5.187045    4.722000    5.777265
     27          1           0       -5.783386    4.937316    7.424871
     28          6           0       -3.690009    4.582442    7.301262
     29          1           0       -3.436869    3.864265    8.082532
     30          1           0       -3.587753    5.592630    7.688438
     31          8           0       -5.540717    3.008013    6.904785
     32          1           0       -4.829268    2.454460    6.553731
 ---------------------------------------------------------------------
                    Distance matrix (angstroms):
                    1          2          3          4          5
     1  O    0.000000
     2  H    0.967501   0.000000
     3  C    6.805843   5.978161   0.000000
     4  H    7.484062   6.607734   1.081190   0.000000
     5  C    5.451782   4.610174   1.382678   2.148731   0.000000
     6  H    5.106947   4.188270   2.148516   2.493428   1.081193
     7  O    2.781967   1.913372   4.195748   4.864857   2.814131
     8  C    2.462048   2.525077   6.076082   6.986915   4.843646
     9  H    3.334108   3.559294   6.726930   7.701810   5.596356
    10  H    2.560396   2.502304   6.264317   7.107986   4.987638
    11  C    1.411557   1.930643   6.695277   7.522639   5.414561
    12  H    2.013165   2.798940   7.750080   8.597874   6.482396
    13  H    2.081935   2.426590   6.407652   7.243880   5.220444
    14  C    4.785011   4.084418   2.400435   3.387713   1.391909
    15  C    3.360783   2.703780   3.748712   4.618933   2.471231
    16  O    9.664202   8.996491   3.615508   3.946620   4.749433
    17  C    7.490055   6.757217   1.391976   2.139877   2.400411
    18  C    8.959493   8.216346   2.471309   2.646623   3.748736
    19  O    3.288966   2.984800   4.749517   5.716917   3.615480
    20  C    5.719663   5.161718   2.784547   3.865590   2.416263
    21  H    5.613653   5.215276   3.864907   4.945972   3.393506
    22  C    7.024463   6.415186   2.416257   3.389456   2.784453
    23  H    7.824220   7.288510   3.393531   4.276925   3.864833
    24  O    9.571761   8.769131   2.814090   2.489883   4.195707
    25  C   11.905247  11.171202   5.413928   5.348874   6.695092
    26  H   11.535581  10.801270   5.214475   5.244312   6.402860
    27  H   12.892256  12.181284   6.481383   6.432685   7.749009
    28  C   11.075619  10.400866   4.843570   4.954406   6.075871
    29  H   11.275605  10.592971   4.988144   4.962240   6.264293
    30  H   11.458783  10.848392   5.596317   5.847404   6.726668
    31  O   12.203888  11.406555   5.457224   5.111937   6.811884
    32  H   11.407519  10.591981   4.617004   4.194158   5.985442
                    6          7          8          9         10
     6  H    0.000000
     7  O    2.490213   0.000000
     8  C    4.954642   2.698855   0.000000
     9  H    5.847563   3.727856   1.086645   0.000000
    10  H    4.961644   2.627710   1.090964   1.779142   0.000000
    11  C    5.350048   3.035551   1.520505   2.154287   2.158567
    12  H    6.433413   4.078280   2.126560   2.307360   2.660256
    13  H    5.251755   3.263723   2.140715   2.637059   3.019678
    14  C    2.139968   2.379741   3.700269   4.328752   3.991580
    15  C    2.646796   1.211021   2.377269   3.207450   2.619590
    16  O    5.716754   7.283251   8.297154   8.548236   8.681613
    17  C    3.387584   5.003774   6.372875   6.827038   6.683422
    18  C    4.618798   6.459053   7.847520   8.257841   8.159000
    19  O    3.946757   2.236602   1.443002   1.996172   2.072856
    20  C    3.389580   3.625002   4.174405   4.486946   4.625848
    21  H    4.277058   3.939623   3.738187   3.808567   4.310152
    22  C    3.865502   4.779341   5.559372   5.838556   5.982169
    23  H    4.945905   5.731663   6.169021   6.279855   6.654395
    24  O    4.864582   7.005074   8.687149   9.192704   8.935892
    25  C    7.522373   9.357911  10.548990  10.811235  10.807013
    26  H    7.238653   8.952304  10.067397  10.302862  10.249449
    27  H    8.597032  10.381180  11.456241  11.656992  11.737826
    28  C    6.986591   8.686938   9.733051   9.963748  10.123728
    29  H    7.107772   8.935459  10.122431  10.414758  10.558579
    30  H    7.701456   9.192348   9.963471  10.081228  10.415793
    31  O    7.490197   9.578512  11.083236  11.466430  11.285217
    32  H    6.614689   8.776940  10.409723  10.857409  10.603324
                   11         12         13         14         15
    11  C    0.000000
    12  H    1.090288   0.000000
    13  H    1.096205   1.765335   0.000000
    14  C    4.446237   5.459030   4.256350   0.000000
    15  C    3.077330   4.102138   3.110181   1.491057   0.000000
    16  O    9.130945  10.044635   8.686715   4.949293   6.416741
    17  C    7.127147   8.117603   6.762802   2.766028   4.256589
    18  C    8.597862   9.581632   8.187752   4.256620   5.746646
    19  O    2.485301   3.332747   2.555504   2.349535   1.323453
    20  C    5.076914   5.972150   4.778193   1.391742   2.516662
    21  H    4.741142   5.503359   4.457071   2.146393   2.733009
    22  C    6.427566   7.330948   6.055108   2.401671   3.780612
    23  H    7.087756   7.910628   6.676545   3.383944   4.657087
    24  O    9.357507  10.382311   8.955539   5.003743   6.458977
    25  C   11.460462  12.393046  11.085011   7.127326   8.598450
    26  H   11.083825  11.998023  10.801016   6.759716   8.185535
    27  H   12.390957  13.296510  11.997018   8.116104   9.580354
    28  C   10.546967  11.456696  10.066468   6.372583   7.847170
    29  H   10.803514  11.736830  10.247330   6.682997   8.158170
    30  H   10.808886  11.657474  10.300971   6.826641   8.257327
    31  O   11.910551  12.899186  11.542214   7.496081   8.966042
    32  H   11.178010  12.189619  10.810113   6.764782   8.224221
                   16         17         18         19         20
    16  O    0.000000
    17  C    2.349416   0.000000
    18  C    1.323421   1.491088   0.000000
    19  O    6.861206   4.949425   6.416890   0.000000
    20  C    4.123345   2.401663   3.780612   2.738888   0.000000
    21  H    4.771325   3.383934   4.657084   2.406781   1.080386
    22  C    2.738591   1.391648   2.516598   4.123605   1.385087
    23  H    2.406371   2.146334   2.732939   4.771610   2.143444
    24  O    2.236653   2.379725   1.210989   7.283298   4.779327
    25  C    2.485528   4.445425   3.075717   9.132372   6.427676
    26  H    2.554170   4.251104   3.103410   8.686792   6.053022
    27  H    3.331730   5.457314   4.100601  10.043697   7.328842
    28  C    1.442864   3.700081   2.377184   8.296874   5.558966
    29  H    2.072718   3.992079   2.620889   8.680248   5.981629
    30  H    1.995947   4.328619   3.207536   8.547722   5.838021
    31  O    3.292083   4.789634   3.364054   9.671083   7.029762
    32  H    2.990066   4.091039   2.709276   9.004797   6.422422
                   21         22         23         24         25
    21  H    0.000000
    22  C    2.143498   0.000000
    23  H    2.474366   1.080406   0.000000
    24  O    5.731652   3.624923   3.939578   0.000000
    25  C    7.088120   5.076572   4.740764   3.032423   0.000000
    26  H    6.675775   4.775405   4.455630   3.253452   1.096204
    27  H    7.908285   5.969815   5.500456   4.077003   1.090227
    28  C    6.168568   4.174025   3.737733   2.699023   1.520642
    29  H    6.653587   4.625675   4.309907   2.630573   2.158580
    30  H    6.279223   4.486544   3.808069   3.728311   2.154526
    31  O    7.829381   5.724121   5.617151   2.783650   1.411456
    32  H    7.295693   5.168322   5.221147   1.916591   1.930051
                   26         27         28         29         30
    26  H    0.000000
    27  H    1.765386   0.000000
    28  C    2.140832   2.126839   0.000000
    29  H    3.018788   2.662724   1.090982   0.000000
    30  H    2.639756   2.306449   1.086665   1.779135   0.000000
    31  O    2.081860   2.012856   2.461939   2.558600   3.332931
    32  H    2.423354   2.798892   2.526861   2.502710   3.560482
                   31         32
    31  O    0.000000
    32  H    0.967377   0.000000
 Symmetry turned off by external request.
 Stoichiometry    C12H14O6
 Framework group  C1[X(C12H14O6)]
 Deg. of freedom    90
 Full point group                 C1      NOp   1
 Rotational constants (GHZ):           1.7479615           0.1295334           0.1231930
 Standard basis: def2TZVP (5D, 7F)
   642 basis functions,  1030 primitive gaussians,   732 cartesian basis functions
    67 alpha electrons       67 beta electrons
       nuclear repulsion energy      1273.7694339203 Hartrees.
 NAtoms=   32 NActive=   32 NUniq=   32 SFac= 1.00D+00 NAtFMM=   60 NAOKFM=F Big=F
 Integral buffers will be    131072 words long.
 Raffenetti 2 integral format.
 Two-electron integral symmetry is turned off.
 ------------------------------------------------------------------------------
 Polarizable Continuum Model (PCM)
 =================================
 Model                : PCM.
 Atomic radii         : UFF (Universal Force Field).
 Polarization charges : Total charges.
 Charge compensation  : None.
 Solution method      : On-the-fly selection.
 Cavity type          : Scaled VdW (van der Waals Surface) (Alpha=1.100).
 Cavity algorithm     : GePol (No added spheres)
                        Default sphere list used, NSphG=   32.
                        Lebedev-Laikov grids with approx.  5.0 points / Ang**2.
                        Smoothing algorithm: York/Karplus (Gamma=1.0000).
                        Polarization charges: spherical gaussians, with
                                              point-specific exponents (IZeta= 3).
                        Self-potential: point-specific (ISelfS= 7).
                        Self-field    : sphere-specific E.n sum rule (ISelfD= 2).
 1st derivatives      : Analytical E(r).r(x)/FMM algorithm (CHGder, D1EAlg=3).
                        Cavity 1st derivative terms included.
 Solvent              : PerFluoroBenzene, Eps=   2.029000 Eps(inf)=   1.898057
 ------------------------------------------------------------------------------
 One-electron integrals computed using PRISM.
   1 Symmetry operations used in ECPInt.
 ECPInt:  NShTT=   32385 NPrTT=   99228 LenC2=   26132 LenP2D=   57445.
 LDataN:  DoStor=T MaxTD1= 6 Len=  172
 NBasis=   642 RedAO= T EigKep=  7.12D-06  NBF=   642
 NBsUse=   642 1.00D-06 EigRej= -1.00D+00 NBFU=   642
 Initial guess from the checkpoint file:  "/dev/shm/pet_mono_843_tzvp_pfb.chk"
 B after Tr=     0.000000    0.000000    0.000000
         Rot=    1.000000    0.000000    0.000000    0.000000 Ang=   0.00 deg.
 Requested convergence on RMS density matrix=1.00D-08 within  32 cycles.
 Requested convergence on MAX density matrix=1.00D-06.
 Requested convergence on             energy=1.00D-06.
 No special actions if energy rises.
 Inv3:  Mode=1 IEnd=    18022203.
 Iteration    1 A*A^-1 deviation from unit magnitude is 2.89D-15 for      9.
 Iteration    1 A*A^-1 deviation from orthogonality  is 1.97D-15 for   1835    510.
 Iteration    1 A^-1*A deviation from unit magnitude is 3.77D-15 for    505.
 Iteration    1 A^-1*A deviation from orthogonality  is 2.19D-15 for   2120   1964.
 Error on total polarization charges =  0.00971
 SCF Done:  E(RM062X) =  -917.077156784     A.U. after   10 cycles
            NFock= 10  Conv=0.65D-08     -V/T= 2.0045
 QCSCF skips out because SCF is already converged.

 **********************************************************************

            Population analysis using the SCF Density.

 **********************************************************************

 Alpha  occ. eigenvalues --  -19.69264 -19.69258 -19.63892 -19.63886 -19.61441
 Alpha  occ. eigenvalues --  -19.61434 -10.69794 -10.69786 -10.60841 -10.60834
 Alpha  occ. eigenvalues --  -10.59060 -10.59059 -10.58150 -10.58146 -10.57107
 Alpha  occ. eigenvalues --  -10.57024 -10.56859 -10.56776  -1.26296  -1.26289
 Alpha  occ. eigenvalues --   -1.16624  -1.16617  -1.14065  -1.14054  -0.99888
 Alpha  occ. eigenvalues --   -0.91499  -0.88315  -0.87078  -0.86066  -0.78892
 Alpha  occ. eigenvalues --   -0.76050  -0.72675  -0.71881  -0.66964  -0.65867
 Alpha  occ. eigenvalues --   -0.65012  -0.62757  -0.61025  -0.60675  -0.60098
 Alpha  occ. eigenvalues --   -0.59279  -0.55625  -0.55223  -0.54647  -0.54355
 Alpha  occ. eigenvalues --   -0.53990  -0.53116  -0.51704  -0.49938  -0.49598
 Alpha  occ. eigenvalues --   -0.49205  -0.47731  -0.46989  -0.46029  -0.45800
 Alpha  occ. eigenvalues --   -0.45134  -0.42987  -0.42727  -0.42541  -0.39307
 Alpha  occ. eigenvalues --   -0.39114  -0.37983  -0.37678  -0.35173  -0.35107
 Alpha  occ. eigenvalues --   -0.33961  -0.33635
 Alpha virt. eigenvalues --   -0.05855  -0.00151   0.03309   0.07073   0.07579
 Alpha virt. eigenvalues --    0.09214   0.09953   0.09979   0.10242   0.10811
 Alpha virt. eigenvalues --    0.11077   0.11618   0.12076   0.13015   0.13153
 Alpha virt. eigenvalues --    0.13433   0.14542   0.14569   0.15120   0.15354
 Alpha virt. eigenvalues --    0.16133   0.17005   0.17523   0.18908   0.20647
 Alpha virt. eigenvalues --    0.20821   0.21438   0.22131   0.22848   0.24144
 Alpha virt. eigenvalues --    0.24270   0.24921   0.25150   0.26362   0.26585
 Alpha virt. eigenvalues --    0.26623   0.27264   0.27326   0.28474   0.29281
 Alpha virt. eigenvalues --    0.31219   0.31270   0.32004   0.32406   0.32902
 Alpha virt. eigenvalues --    0.33276   0.34702   0.35386   0.35555   0.36595
 Alpha virt. eigenvalues --    0.36647   0.37070   0.38582   0.38699   0.39209
 Alpha virt. eigenvalues --    0.39271   0.39583   0.39996   0.40473   0.40515
 Alpha virt. eigenvalues --    0.41805   0.42135   0.42407   0.42660   0.43284
 Alpha virt. eigenvalues --    0.44080   0.44222   0.44465   0.44869   0.45767
 Alpha virt. eigenvalues --    0.46111   0.47104   0.47910   0.48829   0.49194
 Alpha virt. eigenvalues --    0.49241   0.49858   0.50524   0.50587   0.51056
 Alpha virt. eigenvalues --    0.51745   0.52757   0.54035   0.54143   0.54840
 Alpha virt. eigenvalues --    0.54892   0.55542   0.56025   0.56180   0.57270
 Alpha virt. eigenvalues --    0.59374   0.59527   0.60464   0.63118   0.63253
 Alpha virt. eigenvalues --    0.63924   0.65143   0.65827   0.66035   0.66606
 Alpha virt. eigenvalues --    0.67886   0.68167   0.68636   0.69240   0.70129
 Alpha virt. eigenvalues --    0.71301   0.72215   0.72267   0.72840   0.73201
 Alpha virt. eigenvalues --    0.74273   0.75706   0.75847   0.76330   0.76752
 Alpha virt. eigenvalues --    0.78157   0.78378   0.80088   0.80256   0.81493
 Alpha virt. eigenvalues --    0.83084   0.84618   0.86251   0.86684   0.87511
 Alpha virt. eigenvalues --    0.87656   0.88959   0.89184   0.89588   0.90326
 Alpha virt. eigenvalues --    0.91414   0.92844   0.92985   0.93582   0.95045
 Alpha virt. eigenvalues --    0.95126   0.96535   0.97192   0.98604   0.99425
 Alpha virt. eigenvalues --    1.00844   1.02395   1.02801   1.03082   1.04002
 Alpha virt. eigenvalues --    1.05297   1.07389   1.08837   1.09527   1.10672
 Alpha virt. eigenvalues --    1.10940   1.11877   1.12675   1.13201   1.13714
 Alpha virt. eigenvalues --    1.14783   1.15862   1.16895   1.17443   1.19297
 Alpha virt. eigenvalues --    1.21474   1.21934   1.23762   1.24641   1.25405
 Alpha virt. eigenvalues --    1.26461   1.27925   1.29991   1.30207   1.31013
 Alpha virt. eigenvalues --    1.32483   1.33114   1.35182   1.35936   1.40123
 Alpha virt. eigenvalues --    1.41058   1.41529   1.42129   1.43969   1.44077
 Alpha virt. eigenvalues --    1.45484   1.48348   1.49057   1.49334   1.49875
 Alpha virt. eigenvalues --    1.50962   1.51003   1.53341   1.53652   1.54767
 Alpha virt. eigenvalues --    1.54931   1.55863   1.56652   1.57010   1.59010
 Alpha virt. eigenvalues --    1.59483   1.60449   1.60578   1.61757   1.62064
 Alpha virt. eigenvalues --    1.62926   1.64211   1.64603   1.64832   1.67674
 Alpha virt. eigenvalues --    1.68906   1.69380   1.69803   1.71653   1.73318
 Alpha virt. eigenvalues --    1.73612   1.74342   1.74490   1.75250   1.76048
 Alpha virt. eigenvalues --    1.77123   1.78485   1.80146   1.81675   1.82297
 Alpha virt. eigenvalues --    1.83929   1.84071   1.85036   1.85573   1.87690
 Alpha virt. eigenvalues --    1.87763   1.88829   1.89908   1.90972   1.92185
 Alpha virt. eigenvalues --    1.93208   1.93297   1.94842   1.95305   1.98478
 Alpha virt. eigenvalues --    1.99685   2.00309   2.00832   2.01530   2.03152
 Alpha virt. eigenvalues --    2.03907   2.04178   2.04572   2.05873   2.06566
 Alpha virt. eigenvalues --    2.08131   2.09124   2.11314   2.13260   2.14340
 Alpha virt. eigenvalues --    2.15145   2.16414   2.17277   2.17949   2.18117
 Alpha virt. eigenvalues --    2.18540   2.21790   2.24303   2.24496   2.26024
 Alpha virt. eigenvalues --    2.27322   2.27984   2.29029   2.30224   2.31327
 Alpha virt. eigenvalues --    2.31478   2.31528   2.33298   2.33553   2.33848
 Alpha virt. eigenvalues --    2.33914   2.35244   2.35589   2.36721   2.37667
 Alpha virt. eigenvalues --    2.38455   2.40001   2.41576   2.42237   2.45622
 Alpha virt. eigenvalues --    2.47357   2.47857   2.49130   2.49228   2.50076
 Alpha virt. eigenvalues --    2.52555   2.54981   2.55361   2.55877   2.55978
 Alpha virt. eigenvalues --    2.56607   2.58781   2.58963   2.59878   2.60564
 Alpha virt. eigenvalues --    2.61136   2.61707   2.63772   2.65414   2.65578
 Alpha virt. eigenvalues --    2.67193   2.68614   2.69918   2.70064   2.70717
 Alpha virt. eigenvalues --    2.70756   2.71594   2.72252   2.72363   2.72747
 Alpha virt. eigenvalues --    2.74160   2.76191   2.77178   2.77331   2.79729
 Alpha virt. eigenvalues --    2.82567   2.82990   2.83687   2.84149   2.84761
 Alpha virt. eigenvalues --    2.85165   2.86287   2.86953   2.88439   2.88782
 Alpha virt. eigenvalues --    2.90770   2.91341   2.93047   2.94117   2.94226
 Alpha virt. eigenvalues --    2.95043   2.95378   2.96566   2.97073   2.97562
 Alpha virt. eigenvalues --    2.98005   2.99194   2.99778   3.00551   3.01710
 Alpha virt. eigenvalues --    3.03740   3.03790   3.05169   3.05984   3.06819
 Alpha virt. eigenvalues --    3.07611   3.09208   3.09765   3.11522   3.11821
 Alpha virt. eigenvalues --    3.12384   3.13481   3.13510   3.13843   3.14578
 Alpha virt. eigenvalues --    3.15735   3.16816   3.19405   3.19544   3.20103
 Alpha virt. eigenvalues --    3.20749   3.21843   3.21902   3.22464   3.23562
 Alpha virt. eigenvalues --    3.23583   3.25330   3.25799   3.26011   3.28166
 Alpha virt. eigenvalues --    3.28500   3.29190   3.30174   3.30759   3.31292
 Alpha virt. eigenvalues --    3.31598   3.33009   3.33472   3.34050   3.35220
 Alpha virt. eigenvalues --    3.36144   3.36402   3.37258   3.38135   3.38766
 Alpha virt. eigenvalues --    3.39381   3.39760   3.40745   3.42031   3.42117
 Alpha virt. eigenvalues --    3.44353   3.45264   3.46221   3.46438   3.47001
 Alpha virt. eigenvalues --    3.48550   3.49289   3.49502   3.51234   3.51412
 Alpha virt. eigenvalues --    3.52747   3.54724   3.55022   3.56083   3.56537
 Alpha virt. eigenvalues --    3.58475   3.60508   3.60575   3.61824   3.62840
 Alpha virt. eigenvalues --    3.63872   3.66446   3.69263   3.70490   3.74839
 Alpha virt. eigenvalues --    3.75700   3.77824   3.77936   3.80624   3.81501
 Alpha virt. eigenvalues --    3.82213   3.85722   3.87110   3.88635   3.89278
 Alpha virt. eigenvalues --    3.90445   3.90884   3.91480   3.93648   3.93740
 Alpha virt. eigenvalues --    3.98030   3.98833   4.00983   4.04114   4.04872
 Alpha virt. eigenvalues --    4.06151   4.06346   4.12147   4.13510   4.15132
 Alpha virt. eigenvalues --    4.16194   4.18745   4.19117   4.19758   4.20262
 Alpha virt. eigenvalues --    4.24532   4.24984   4.25334   4.26196   4.28948
 Alpha virt. eigenvalues --    4.30824   4.32508   4.33289   4.40539   4.41037
 Alpha virt. eigenvalues --    4.42888   4.45101   4.45713   4.47441   4.49211
 Alpha virt. eigenvalues --    4.50720   4.56066   4.58906   4.60631   4.62247
 Alpha virt. eigenvalues --    4.62394   4.63127   4.65125   4.66984   4.71351
 Alpha virt. eigenvalues --    4.74724   4.76794   4.78701   4.88764   4.89477
 Alpha virt. eigenvalues --    4.90272   4.90766   5.02327   5.04388   5.14392
 Alpha virt. eigenvalues --    5.16724   5.16993   5.21241   5.22566   5.26324
 Alpha virt. eigenvalues --    5.27069   5.29053   5.29315   5.29805   5.30286
 Alpha virt. eigenvalues --    5.36956   5.37758   5.38495   5.45546   5.45639
 Alpha virt. eigenvalues --    5.47978   5.48834   5.48866   5.49594   5.49950
 Alpha virt. eigenvalues --    5.59485   5.64696   5.66053   5.66242   5.69202
 Alpha virt. eigenvalues --    5.74317   5.74588   5.77740   5.77887   5.83215
 Alpha virt. eigenvalues --    5.86308   5.93016   5.93316   5.99539   5.99960
 Alpha virt. eigenvalues --    6.11244   6.14330   6.15058   6.15565   6.18410
 Alpha virt. eigenvalues --    6.24928   6.26193   6.30508   6.37494   6.38068
 Alpha virt. eigenvalues --    6.39298   6.41064   6.45777   6.46590   6.53942
 Alpha virt. eigenvalues --    6.56894   6.65387   6.65588   6.68109   6.69510
 Alpha virt. eigenvalues --    6.71588   6.74287   6.75529   6.75717   6.77479
 Alpha virt. eigenvalues --    6.77555   6.88944   6.90069   6.91085   6.94117
 Alpha virt. eigenvalues --    6.98131   6.98337   7.03741   7.05223   7.12288
 Alpha virt. eigenvalues --    7.14574   7.17563   7.17760   7.30169   7.34166
 Alpha virt. eigenvalues --    7.40656   7.43478  22.33271  22.49833  22.50611
 Alpha virt. eigenvalues --   22.59216  22.59562  22.80924  22.82910  22.87394
 Alpha virt. eigenvalues --   23.00067  23.38913  23.53453  23.66771  43.95008
 Alpha virt. eigenvalues --   43.95035  44.06918  44.10016  44.35514  44.42906
          Condensed to atoms (all electrons):
               1          2          3          4          5          6
     1  O    8.072772   0.317206  -0.000001  -0.000000   0.000132   0.000013
     2  H    0.317206   0.355445   0.000011  -0.000000   0.000195   0.000042
     3  C   -0.000001   0.000011   5.005386   0.406584   0.489167  -0.031052
     4  H   -0.000000  -0.000000   0.406584   0.453089  -0.031007  -0.002462
     5  C    0.000132   0.000195   0.489167  -0.031007   5.005331   0.406586
     6  H    0.000013   0.000042  -0.031052  -0.002462   0.406586   0.453063
     7  O   -0.027663   0.016135   0.000987  -0.000061   0.026459   0.013382
     8  C   -0.033535  -0.003211   0.000027   0.000000  -0.002349  -0.000156
     9  H    0.007347  -0.000227  -0.000004   0.000000   0.000100   0.000001
    10  H   -0.000805  -0.000156  -0.000005  -0.000000  -0.000240  -0.000010
    11  C    0.240844  -0.040893  -0.000004  -0.000000   0.000285   0.000034
    12  H   -0.036979   0.007789   0.000000  -0.000000   0.000003  -0.000000
    13  H   -0.047657  -0.002985  -0.000008  -0.000000  -0.000047  -0.000000
    14  C    0.001422   0.000912  -0.043536   0.004502   0.448953  -0.022149
    15  C    0.000125  -0.001437   0.000694  -0.000195  -0.050870  -0.011969
    16  O    0.000000  -0.000000   0.004490   0.000555  -0.000181   0.000003
    17  C    0.000001   0.000000   0.448905  -0.022198  -0.043501   0.004503
    18  C    0.000000  -0.000000  -0.050855  -0.011969   0.000622  -0.000195
    19  O    0.003428   0.000758  -0.000185   0.000003   0.004509   0.000553
    20  C   -0.000099  -0.000155  -0.034693  -0.000779  -0.061356   0.006263
    21  H   -0.000001  -0.000008  -0.000738   0.000055   0.004783  -0.000167
    22  C   -0.000002  -0.000000  -0.061352   0.006261  -0.034647  -0.000778
    23  H    0.000000  -0.000000   0.004773  -0.000168  -0.000732   0.000055
    24  O   -0.000000  -0.000000   0.026410   0.013402   0.000988  -0.000061
    25  C   -0.000000   0.000000   0.000270   0.000033  -0.000003   0.000000
    26  H   -0.000000  -0.000000  -0.000044  -0.000000  -0.000009  -0.000000
    27  H    0.000000   0.000000   0.000003  -0.000000   0.000000  -0.000000
    28  C    0.000000  -0.000000  -0.002334  -0.000155   0.000025   0.000000
    29  H   -0.000000   0.000000  -0.000236  -0.000010  -0.000005  -0.000000
    30  H    0.000000  -0.000000   0.000102   0.000001  -0.000004   0.000000
    31  O    0.000000   0.000000   0.000132   0.000013  -0.000001  -0.000000
    32  H    0.000000   0.000000   0.000194   0.000041   0.000010  -0.000000
               7          8          9         10         11         12
     1  O   -0.027663  -0.033535   0.007347  -0.000805   0.240844  -0.036979
     2  H    0.016135  -0.003211  -0.000227  -0.000156  -0.040893   0.007789
     3  C    0.000987   0.000027  -0.000004  -0.000005  -0.000004   0.000000
     4  H   -0.000061   0.000000   0.000000  -0.000000  -0.000000  -0.000000
     5  C    0.026459  -0.002349   0.000100  -0.000240   0.000285   0.000003
     6  H    0.013382  -0.000156   0.000001  -0.000010   0.000034  -0.000000
     7  O    8.026940   0.023822   0.000971   0.000497   0.011252   0.000180
     8  C    0.023822   5.060288   0.386643   0.443784   0.262103  -0.038097
     9  H    0.000971   0.386643   0.541261  -0.017619  -0.038891  -0.006636
    10  H    0.000497   0.443784  -0.017619   0.493431  -0.062471  -0.000461
    11  C    0.011252   0.262103  -0.038891  -0.062471   4.924630   0.404933
    12  H    0.000180  -0.038097  -0.006636  -0.000461   0.404933   0.562140
    13  H   -0.002779  -0.053447   0.007136   0.008815   0.410640  -0.036155
    14  C   -0.137911   0.005140   0.001303  -0.002036  -0.003181   0.000440
    15  C    0.564147  -0.055807   0.002173  -0.010074   0.007119   0.002030
    16  O    0.000000   0.000000  -0.000000  -0.000000   0.000000  -0.000000
    17  C   -0.000026   0.000006   0.000003  -0.000000  -0.000001   0.000000
    18  C   -0.000016  -0.000001   0.000000  -0.000000  -0.000000   0.000000
    19  O   -0.086867   0.187026  -0.034188  -0.032380  -0.040273   0.003826
    20  C    0.003831   0.000163  -0.000786   0.000709   0.000331  -0.000045
    21  H    0.000309   0.000006  -0.000235   0.000119   0.000043  -0.000001
    22  C    0.000332  -0.000270  -0.000096   0.000014   0.000053  -0.000001
    23  H    0.000005  -0.000005   0.000000  -0.000001   0.000000   0.000000
    24  O    0.000000  -0.000000  -0.000000   0.000000  -0.000000  -0.000000
    25  C   -0.000000   0.000000  -0.000000   0.000000   0.000000   0.000000
    26  H    0.000000  -0.000000  -0.000000   0.000000   0.000000  -0.000000
    27  H   -0.000000  -0.000000   0.000000   0.000000   0.000000   0.000000
    28  C   -0.000000  -0.000000  -0.000000  -0.000000   0.000000  -0.000000
    29  H    0.000000  -0.000000  -0.000000   0.000000   0.000000   0.000000
    30  H   -0.000000  -0.000000   0.000000  -0.000000  -0.000000   0.000000
    31  O   -0.000000   0.000000   0.000000  -0.000000  -0.000000   0.000000
    32  H   -0.000000  -0.000000  -0.000000   0.000000   0.000000   0.000000
              13         14         15         16         17         18
     1  O   -0.047657   0.001422   0.000125   0.000000   0.000001   0.000000
     2  H   -0.002985   0.000912  -0.001437  -0.000000   0.000000  -0.000000
     3  C   -0.000008  -0.043536   0.000694   0.004490   0.448905  -0.050855
     4  H   -0.000000   0.004502  -0.000195   0.000555  -0.022198  -0.011969
     5  C   -0.000047   0.448953  -0.050870  -0.000181  -0.043501   0.000622
     6  H   -0.000000  -0.022149  -0.011969   0.000003   0.004503  -0.000195
     7  O   -0.002779  -0.137911   0.564147   0.000000  -0.000026  -0.000016
     8  C   -0.053447   0.005140  -0.055807   0.000000   0.000006  -0.000001
     9  H    0.007136   0.001303   0.002173  -0.000000   0.000003   0.000000
    10  H    0.008815  -0.002036  -0.010074  -0.000000  -0.000000  -0.000000
    11  C    0.410640  -0.003181   0.007119   0.000000  -0.000001  -0.000000
    12  H   -0.036155   0.000440   0.002030  -0.000000   0.000000   0.000000
    13  H    0.587854  -0.003900  -0.005716   0.000000   0.000001  -0.000000
    14  C   -0.003900   5.241368   0.275038   0.000213  -0.042333  -0.002174
    15  C   -0.005716   0.275038   4.522759  -0.000009  -0.002206  -0.001423
    16  O    0.000000   0.000213  -0.000009   7.964043  -0.153596   0.395759
    17  C    0.000001  -0.042333  -0.002206  -0.153596   5.239227   0.276832
    18  C   -0.000000  -0.002174  -0.001423   0.395759   0.276832   4.521034
    19  O    0.005150  -0.153593   0.396024   0.000000   0.000213  -0.000009
    20  C    0.000592   0.445976  -0.052921   0.000924  -0.046775   0.005721
    21  H    0.000088  -0.022639  -0.011564  -0.000074   0.005049  -0.000172
    22  C   -0.000003  -0.046750   0.005681   0.031151   0.446288  -0.053287
    23  H   -0.000001   0.005053  -0.000174   0.014331  -0.022612  -0.011579
    24  O    0.000000  -0.000025  -0.000016  -0.086906  -0.137925   0.564398
    25  C    0.000000  -0.000001  -0.000000  -0.040541  -0.003225   0.007056
    26  H    0.000000   0.000001  -0.000000   0.005177  -0.003880  -0.005557
    27  H   -0.000000   0.000000   0.000000   0.003804   0.000438   0.001994
    28  C   -0.000000   0.000007  -0.000001   0.187313   0.005399  -0.055737
    29  H    0.000000  -0.000000  -0.000000  -0.032377  -0.002006  -0.009985
    30  H   -0.000000   0.000003   0.000000  -0.034194   0.001317   0.002240
    31  O   -0.000000   0.000001   0.000000   0.003440   0.001397   0.000078
    32  H   -0.000000   0.000000  -0.000000   0.000763   0.000918  -0.001437
              19         20         21         22         23         24
     1  O    0.003428  -0.000099  -0.000001  -0.000002   0.000000  -0.000000
     2  H    0.000758  -0.000155  -0.000008  -0.000000  -0.000000  -0.000000
     3  C   -0.000185  -0.034693  -0.000738  -0.061352   0.004773   0.026410
     4  H    0.000003  -0.000779   0.000055   0.006261  -0.000168   0.013402
     5  C    0.004509  -0.061356   0.004783  -0.034647  -0.000732   0.000988
     6  H    0.000553   0.006263  -0.000167  -0.000778   0.000055  -0.000061
     7  O   -0.086867   0.003831   0.000309   0.000332   0.000005   0.000000
     8  C    0.187026   0.000163   0.000006  -0.000270  -0.000005  -0.000000
     9  H   -0.034188  -0.000786  -0.000235  -0.000096   0.000000  -0.000000
    10  H   -0.032380   0.000709   0.000119   0.000014  -0.000001   0.000000
    11  C   -0.040273   0.000331   0.000043   0.000053   0.000000  -0.000000
    12  H    0.003826  -0.000045  -0.000001  -0.000001   0.000000  -0.000000
    13  H    0.005150   0.000592   0.000088  -0.000003  -0.000001   0.000000
    14  C   -0.153593   0.445976  -0.022639  -0.046750   0.005053  -0.000025
    15  C    0.396024  -0.052921  -0.011564   0.005681  -0.000174  -0.000016
    16  O    0.000000   0.000924  -0.000074   0.031151   0.014331  -0.086906
    17  C    0.000213  -0.046775   0.005049   0.446288  -0.022612  -0.137925
    18  C   -0.000009   0.005721  -0.000172  -0.053287  -0.011579   0.564398
    19  O    7.963922   0.031088   0.014325   0.000926  -0.000074   0.000000
    20  C    0.031088   5.025887   0.407572   0.473586  -0.032802   0.000331
    21  H    0.014325   0.407572   0.464255  -0.032734  -0.003282   0.000005
    22  C    0.000926   0.473586  -0.032734   5.025813   0.407620   0.003847
    23  H   -0.000074  -0.032802  -0.003282   0.407620   0.464195   0.000309
    24  O    0.000000   0.000331   0.000005   0.003847   0.000309   8.026481
    25  C    0.000000   0.000052   0.000000   0.000342   0.000041   0.011557
    26  H    0.000000  -0.000003  -0.000001   0.000592   0.000088  -0.002855
    27  H   -0.000000  -0.000001   0.000000  -0.000045  -0.000001   0.000198
    28  C    0.000000  -0.000268  -0.000005   0.000129   0.000004   0.023789
    29  H   -0.000000   0.000014  -0.000001   0.000709   0.000119   0.000470
    30  H   -0.000000  -0.000096   0.000000  -0.000792  -0.000236   0.000970
    31  O    0.000000  -0.000002   0.000000  -0.000099  -0.000001  -0.027519
    32  H   -0.000000  -0.000000  -0.000000  -0.000153  -0.000008   0.016020
              25         26         27         28         29         30
     1  O   -0.000000  -0.000000   0.000000   0.000000  -0.000000   0.000000
     2  H    0.000000  -0.000000   0.000000  -0.000000   0.000000  -0.000000
     3  C    0.000270  -0.000044   0.000003  -0.002334  -0.000236   0.000102
     4  H    0.000033  -0.000000  -0.000000  -0.000155  -0.000010   0.000001
     5  C   -0.000003  -0.000009   0.000000   0.000025  -0.000005  -0.000004
     6  H    0.000000  -0.000000  -0.000000   0.000000  -0.000000   0.000000
     7  O   -0.000000   0.000000  -0.000000  -0.000000   0.000000  -0.000000
     8  C    0.000000  -0.000000  -0.000000  -0.000000  -0.000000  -0.000000
     9  H   -0.000000  -0.000000   0.000000  -0.000000  -0.000000   0.000000
    10  H    0.000000   0.000000   0.000000  -0.000000   0.000000  -0.000000
    11  C    0.000000   0.000000   0.000000   0.000000   0.000000  -0.000000
    12  H    0.000000  -0.000000   0.000000  -0.000000   0.000000   0.000000
    13  H    0.000000   0.000000  -0.000000  -0.000000   0.000000  -0.000000
    14  C   -0.000001   0.000001   0.000000   0.000007  -0.000000   0.000003
    15  C   -0.000000  -0.000000   0.000000  -0.000001  -0.000000   0.000000
    16  O   -0.040541   0.005177   0.003804   0.187313  -0.032377  -0.034194
    17  C   -0.003225  -0.003880   0.000438   0.005399  -0.002006   0.001317
    18  C    0.007056  -0.005557   0.001994  -0.055737  -0.009985   0.002240
    19  O    0.000000   0.000000  -0.000000   0.000000  -0.000000  -0.000000
    20  C    0.000052  -0.000003  -0.000001  -0.000268   0.000014  -0.000096
    21  H    0.000000  -0.000001   0.000000  -0.000005  -0.000001   0.000000
    22  C    0.000342   0.000592  -0.000045   0.000129   0.000709  -0.000792
    23  H    0.000041   0.000088  -0.000001   0.000004   0.000119  -0.000236
    24  O    0.011557  -0.002855   0.000198   0.023789   0.000470   0.000970
    25  C    4.926456   0.411058   0.404657   0.261300  -0.062464  -0.038858
    26  H    0.411058   0.587493  -0.036066  -0.053944   0.008810   0.007161
    27  H    0.404657  -0.036066   0.561892  -0.037872  -0.000430  -0.006659
    28  C    0.261300  -0.053944  -0.037872   5.060550   0.443670   0.386434
    29  H   -0.062464   0.008810  -0.000430   0.443670   0.493556  -0.017636
    30  H   -0.038858   0.007161  -0.006659   0.386434  -0.017636   0.541473
    31  O    0.240634  -0.047645  -0.036887  -0.033564  -0.000794   0.007368
    32  H   -0.041158  -0.003067   0.007825  -0.003064  -0.000151  -0.000224
              31         32
     1  O    0.000000   0.000000
     2  H    0.000000   0.000000
     3  C    0.000132   0.000194
     4  H    0.000013   0.000041
     5  C   -0.000001   0.000010
     6  H   -0.000000  -0.000000
     7  O   -0.000000  -0.000000
     8  C    0.000000  -0.000000
     9  H    0.000000  -0.000000
    10  H   -0.000000   0.000000
    11  C   -0.000000   0.000000
    12  H    0.000000   0.000000
    13  H   -0.000000  -0.000000
    14  C    0.000001   0.000000
    15  C    0.000000  -0.000000
    16  O    0.003440   0.000763
    17  C    0.001397   0.000918
    18  C    0.000078  -0.001437
    19  O    0.000000  -0.000000
    20  C   -0.000002  -0.000000
    21  H    0.000000  -0.000000
    22  C   -0.000099  -0.000153
    23  H   -0.000001  -0.000008
    24  O   -0.027519   0.016020
    25  C    0.240634  -0.041158
    26  H   -0.047645  -0.003067
    27  H   -0.036887   0.007825
    28  C   -0.033564  -0.003064
    29  H   -0.000794  -0.000151
    30  H    0.007368  -0.000224
    31  O    8.072575   0.317208
    32  H    0.317208   0.355778
 Mulliken charges:
               1
     1  O   -0.496547
     2  H    0.350581
     3  C   -0.163088
     4  H    0.184464
     5  C   -0.163196
     6  H    0.184504
     7  O   -0.433928
     8  C   -0.182129
     9  H    0.151742
    10  H    0.178889
    11  C   -0.076553
    12  H    0.137036
    13  H    0.132423
    14  C    0.049896
    15  C    0.428593
    16  O   -0.264089
    17  C    0.049786
    18  C    0.428663
    19  O   -0.264184
    20  C   -0.172260
    21  H    0.175012
    22  C   -0.172332
    23  H    0.175078
    24  O   -0.433867
    25  C   -0.077206
    26  H    0.132691
    27  H    0.137151
    28  C   -0.181677
    29  H    0.178746
    30  H    0.151629
    31  O   -0.496334
    32  H    0.350506
 Sum of Mulliken charges =  -0.00000
 Mulliken charges with hydrogens summed into heavy atoms:
               1
     1  O   -0.145966
     3  C    0.021377
     5  C    0.021308
     7  O   -0.433928
     8  C    0.148503
    11  C    0.192906
    14  C    0.049896
    15  C    0.428593
    16  O   -0.264089
    17  C    0.049786
    18  C    0.428663
    19  O   -0.264184
    20  C    0.002751
    22  C    0.002746
    24  O   -0.433867
    25  C    0.192635
    28  C    0.148698
    31  O   -0.145828
 Electronic spatial extent (au):  <R**2>=          21577.4129
 Charge=             -0.0000 electrons
 Dipole moment (field-independent basis, Debye):
    X=              0.7896    Y=              5.4082    Z=              0.9550  Tot=              5.5483
 Quadrupole moment (field-independent basis, Debye-Ang):
   XX=           -131.6062   YY=            -61.9909   ZZ=           -101.2406
   XY=              4.1583   XZ=             14.7729   YZ=             24.1042
 Traceless Quadrupole moment (field-independent basis, Debye-Ang):
   XX=            -33.3270   YY=             36.2883   ZZ=             -2.9613
   XY=              4.1583   XZ=             14.7729   YZ=             24.1042
 Octapole moment (field-independent basis, Debye-Ang**2):
  XXX=            138.7032  YYY=           -868.9569  ZZZ=          -1187.5666  XYY=             34.7706
  XXY=           -344.3304  XXZ=           -519.1524  XZZ=            104.2124  YZZ=           -217.6104
  YYZ=           -226.9738  XYZ=            -30.2242
 Hexadecapole moment (field-independent basis, Debye-Ang**3):
 XXXX=          -7709.1778 YYYY=          -7343.6493 ZZZZ=         -12370.6050 XXXY=            515.8294
 XXXZ=           3375.6685 YYYX=            293.7973 YYYZ=          -3379.7018 ZZZX=           2888.0653
 ZZZY=          -3287.1938 XXYY=          -1956.4748 XXZZ=          -4003.1510 YYZZ=          -2407.1715
 XXYZ=          -1400.8295 YYXZ=            358.5616 ZZXY=           -274.9468
 N-N= 1.273769433920D+03 E-N=-4.692804532237D+03  KE= 9.129827179334D+02
   1 Symmetry operations used in ECPInt.
 ECPInt:  NShTT=   32385 NPrTT=   99228 LenC2=   26132 LenP2D=   57445.
 LDataN:  DoStor=T MaxTD1= 7 Len=  274
 D1PCM: PCM CHGder 1st derivatives, ID1Alg=3 FixD1E=F DoIter=F DoCFld=F I1PDM=0.
 Calling FoFJK, ICntrl=      2127 FMM=F ISym2X=0 I1Cent= 0 IOpClX= 0 NMat=1 NMatS=1 NMatT=0.
 -------------------------------------------------------------------
 Center     Atomic                   Forces (Hartrees/Bohr)
 Number     Number              X              Y              Z
 -------------------------------------------------------------------
      1        8          -0.000195380    0.003196294    0.001203311
      2        1           0.000592337   -0.000228008   -0.000371902
      3        6           0.000201419    0.000179250   -0.000123937
      4        1          -0.000290629    0.000160646    0.000343763
      5        6          -0.000143031    0.000165199    0.000184189
      6        1           0.000330703    0.000165721   -0.000291917
      7        8          -0.001076478    0.002394456    0.001707139
      8        6          -0.000465571   -0.000348070    0.000482231
      9        1          -0.000221144    0.000471660    0.000118854
     10        1           0.000163411   -0.000336775   -0.000055238
     11        6          -0.000138905   -0.003743046   -0.001616316
     12        1           0.000344114   -0.000095211   -0.000123748
     13        1           0.000009966    0.000303926    0.000428038
     14        6           0.000094978    0.000189101    0.000019612
     15        6           0.000154636   -0.004235006   -0.001663420
     16        8          -0.000115481    0.002371278    0.001005343
     17        6          -0.000029729    0.000208264    0.000054322
     18        6          -0.001411651   -0.004321712    0.000142713
     19        8           0.000822420    0.002442505   -0.000162996
     20        6          -0.000387029   -0.000232522    0.000241821
     21        1           0.000203073   -0.000130194   -0.000183213
     22        6           0.000308532   -0.000225068   -0.000322861
     23        1          -0.000233831   -0.000119073    0.000141943
     24        8           0.001769926    0.002415409   -0.000848162
     25        6          -0.000986728   -0.003943437    0.000271000
     26        1           0.000102567    0.000429409   -0.000306749
     27        1          -0.000362062   -0.000031900    0.000100444
     28        6           0.000377771   -0.000267627   -0.000587464
     29        1          -0.000261781   -0.000269509   -0.000056463
     30        1           0.000346746    0.000392780    0.000039051
     31        8           0.001152530    0.003205167   -0.000071026
     32        1          -0.000655699   -0.000163909    0.000301642
 -------------------------------------------------------------------
 Cartesian Forces:  Max     0.004321712 RMS     0.001190663

 GradGradGradGradGradGradGradGradGradGradGradGradGradGradGradGradGradGrad
 Berny optimization.
 FormGI is forming the generalized inverse of G from B-inverse, IUseBI=4.
 Internal  Forces:  Max     0.003110268 RMS     0.000646596
 Search for a local minimum.
 Step number   1 out of a maximum of  160
 All quantities printed in internal units (Hartrees-Bohrs-Radians)
 Mixed Optimization -- En-DIIS/RFO-DIIS
 Second derivative matrix not updated -- first step.
 ITU=  0
     Eigenvalues ---    0.00493   0.00495   0.00884   0.00884   0.01123
     Eigenvalues ---    0.01125   0.01498   0.01498   0.01539   0.01540
     Eigenvalues ---    0.01763   0.01842   0.02197   0.02220   0.02230
     Eigenvalues ---    0.02248   0.02252   0.02260   0.02274   0.02704
     Eigenvalues ---    0.02705   0.04730   0.04732   0.04745   0.04745
     Eigenvalues ---    0.05706   0.05707   0.06067   0.06069   0.11773
     Eigenvalues ---    0.11773   0.11876   0.11878   0.14031   0.14032
     Eigenvalues ---    0.14098   0.14098   0.16000   0.16000   0.16000
     Eigenvalues ---    0.16000   0.16000   0.16000   0.22000   0.22096
     Eigenvalues ---    0.22096   0.22124   0.22124   0.22983   0.24000
     Eigenvalues ---    0.25000   0.25000   0.25000   0.25000   0.25000
     Eigenvalues ---    0.25000   0.25000   0.25000   0.30305   0.30318
     Eigenvalues ---    0.33331   0.33334   0.34105   0.34105   0.34699
     Eigenvalues ---    0.34701   0.34779   0.34786   0.35201   0.35203
     Eigenvalues ---    0.35851   0.35851   0.35945   0.35948   0.39176
     Eigenvalues ---    0.39195   0.42865   0.43263   0.43758   0.43774
     Eigenvalues ---    0.46997   0.47010   0.47526   0.48428   0.53891
     Eigenvalues ---    0.53916   0.61079   0.61087   0.99475   0.99490
 RFO step:  Lambda=-2.83552588D-04 EMin= 4.92894255D-03
 Linear search not attempted -- first point.
 Iteration  1 RMS(Cart)=  0.03027957 RMS(Int)=  0.00038407
 Iteration  2 RMS(Cart)=  0.00053145 RMS(Int)=  0.00000532
 Iteration  3 RMS(Cart)=  0.00000009 RMS(Int)=  0.00000532
 Variable       Old X    -DE/DX   Delta X   Delta X   Delta X     New X
                                 (Linear)    (Quad)   (Total)
    R1        1.82831  -0.00049   0.00000  -0.00092  -0.00092   1.82739
    R2        2.66746  -0.00304   0.00000  -0.00695  -0.00695   2.66051
    R3        2.04315   0.00008   0.00000   0.00022   0.00022   2.04337
    R4        2.61288   0.00012   0.00000   0.00025   0.00025   2.61313
    R5        2.63045  -0.00035   0.00000  -0.00073  -0.00073   2.62972
    R6        2.04316   0.00009   0.00000   0.00025   0.00025   2.04341
    R7        2.63033  -0.00034   0.00000  -0.00072  -0.00072   2.62960
    R8        2.28850  -0.00311   0.00000  -0.00313  -0.00313   2.28537
    R9        2.05346   0.00042   0.00000   0.00119   0.00119   2.05465
   R10        2.06162   0.00009   0.00000   0.00025   0.00025   2.06187
   R11        2.87334   0.00070   0.00000   0.00229   0.00229   2.87563
   R12        2.72688  -0.00005   0.00000  -0.00012  -0.00012   2.72676
   R13        2.06035   0.00027   0.00000   0.00077   0.00077   2.06111
   R14        2.07153   0.00042   0.00000   0.00123   0.00123   2.07275
   R15        2.81769   0.00003   0.00000   0.00010   0.00010   2.81779
   R16        2.63001  -0.00022   0.00000  -0.00048  -0.00048   2.62953
   R17        2.50096   0.00190   0.00000   0.00311   0.00311   2.50407
   R18        2.50090   0.00190   0.00000   0.00310   0.00310   2.50400
   R19        2.72662  -0.00005   0.00000  -0.00013  -0.00013   2.72649
   R20        2.81775   0.00003   0.00000   0.00010   0.00010   2.81785
   R21        2.62983  -0.00023   0.00000  -0.00049  -0.00049   2.62934
   R22        2.28844  -0.00309   0.00000  -0.00311  -0.00311   2.28533
   R23        2.04163   0.00003   0.00000   0.00007   0.00007   2.04171
   R24        2.61743  -0.00000   0.00000  -0.00000  -0.00000   2.61743
   R25        2.04167   0.00003   0.00000   0.00008   0.00008   2.04175
   R26        2.07153   0.00043   0.00000   0.00125   0.00125   2.07277
   R27        2.06023   0.00026   0.00000   0.00076   0.00076   2.06099
   R28        2.87360   0.00068   0.00000   0.00224   0.00224   2.87584
   R29        2.66726  -0.00302   0.00000  -0.00690  -0.00690   2.66037
   R30        2.06166   0.00008   0.00000   0.00022   0.00022   2.06188
   R31        2.05350   0.00041   0.00000   0.00117   0.00117   2.05467
   R32        1.82808  -0.00050   0.00000  -0.00092  -0.00092   1.82716
    A1        1.86760   0.00099   0.00000   0.00620   0.00620   1.87380
    A2        2.11043   0.00046   0.00000   0.00290   0.00290   2.11333
    A3        2.08198  -0.00050   0.00000  -0.00310  -0.00310   2.07888
    A4        2.09078   0.00005   0.00000   0.00020   0.00020   2.09098
    A5        2.11007   0.00046   0.00000   0.00288   0.00288   2.11295
    A6        2.09089   0.00003   0.00000   0.00011   0.00011   2.09100
    A7        2.08222  -0.00048   0.00000  -0.00299  -0.00299   2.07923
    A8        1.91243   0.00021   0.00000   0.00050   0.00050   1.91294
    A9        1.92567   0.00001   0.00000  -0.00068  -0.00067   1.92500
   A10        1.80299  -0.00079   0.00000  -0.00654  -0.00653   1.79646
   A11        1.92711  -0.00055   0.00000  -0.00171  -0.00172   1.92539
   A12        1.90214  -0.00003   0.00000   0.00284   0.00283   1.90497
   A13        1.98910   0.00115   0.00000   0.00532   0.00532   1.99442
   A14        1.99256   0.00100   0.00000   0.00505   0.00504   1.99760
   A15        1.85790  -0.00075   0.00000  -0.00703  -0.00702   1.85088
   A16        1.94815   0.00015   0.00000   0.00504   0.00503   1.95318
   A17        1.88401   0.00000   0.00000  -0.00141  -0.00141   1.88260
   A18        1.89726  -0.00049   0.00000  -0.00071  -0.00073   1.89653
   A19        1.87940   0.00004   0.00000  -0.00164  -0.00164   1.87776
   A20        2.05884  -0.00035   0.00000  -0.00140  -0.00140   2.05744
   A21        2.10240  -0.00008   0.00000  -0.00031  -0.00031   2.10209
   A22        2.12195   0.00043   0.00000   0.00171   0.00171   2.12366
   A23        2.14888  -0.00036   0.00000  -0.00145  -0.00145   2.14743
   A24        2.16113   0.00045   0.00000   0.00180   0.00180   2.16293
   A25        1.97317  -0.00009   0.00000  -0.00035  -0.00035   1.97282
   A26        2.06685   0.00036   0.00000   0.00144   0.00144   2.06829
   A27        2.05883  -0.00037   0.00000  -0.00148  -0.00148   2.05735
   A28        2.10242  -0.00007   0.00000  -0.00031  -0.00031   2.10211
   A29        2.12193   0.00045   0.00000   0.00179   0.00179   2.12372
   A30        1.97302  -0.00008   0.00000  -0.00032  -0.00033   1.97269
   A31        2.16132   0.00044   0.00000   0.00177   0.00177   2.16308
   A32        2.14886  -0.00036   0.00000  -0.00145  -0.00145   2.14740
   A33        2.06676   0.00039   0.00000   0.00158   0.00158   2.06834
   A34        2.09409  -0.00033   0.00000  -0.00201  -0.00201   2.09208
   A35        2.08989   0.00005   0.00000   0.00020   0.00020   2.09008
   A36        2.09921   0.00028   0.00000   0.00182   0.00182   2.10102
   A37        2.08999   0.00003   0.00000   0.00012   0.00012   2.09011
   A38        2.09410  -0.00032   0.00000  -0.00195  -0.00195   2.09216
   A39        2.09909   0.00029   0.00000   0.00183   0.00183   2.10092
   A40        1.87955   0.00004   0.00000  -0.00163  -0.00163   1.87792
   A41        1.89726  -0.00049   0.00000  -0.00072  -0.00074   1.89652
   A42        1.94817   0.00016   0.00000   0.00516   0.00514   1.95331
   A43        1.88429   0.00001   0.00000  -0.00141  -0.00141   1.88288
   A44        1.85766  -0.00075   0.00000  -0.00704  -0.00703   1.85063
   A45        1.99238   0.00098   0.00000   0.00494   0.00493   1.99732
   A46        1.98938   0.00113   0.00000   0.00523   0.00523   1.99461
   A47        1.90210  -0.00002   0.00000   0.00283   0.00283   1.90493
   A48        1.80283  -0.00078   0.00000  -0.00640  -0.00639   1.79644
   A49        1.92695  -0.00056   0.00000  -0.00186  -0.00187   1.92507
   A50        1.92581   0.00002   0.00000  -0.00054  -0.00054   1.92528
   A51        1.91237   0.00020   0.00000   0.00049   0.00049   1.91286
   A52        1.86699   0.00100   0.00000   0.00624   0.00624   1.87323
    D1       -0.80845  -0.00004   0.00000  -0.00241  -0.00243  -0.81087
    D2       -2.88516  -0.00011   0.00000   0.00114   0.00114  -2.88402
    D3        1.35184   0.00020   0.00000   0.00462   0.00463   1.35648
    D4        0.00044   0.00002   0.00000   0.00109   0.00109   0.00153
    D5       -3.14085   0.00001   0.00000   0.00044   0.00044  -3.14041
    D6       -3.14131   0.00001   0.00000   0.00065   0.00065  -3.14066
    D7        0.00058  -0.00000   0.00000   0.00000   0.00000   0.00058
    D8        0.00137  -0.00001   0.00000  -0.00032  -0.00032   0.00105
    D9        3.14140  -0.00001   0.00000  -0.00048  -0.00048   3.14092
   D10       -3.14007   0.00000   0.00000   0.00012   0.00012  -3.13995
   D11       -0.00003  -0.00000   0.00000  -0.00005  -0.00005  -0.00008
   D12       -3.14100   0.00000   0.00000   0.00014   0.00014  -3.14086
   D13       -0.00024  -0.00000   0.00000  -0.00013  -0.00013  -0.00037
   D14        0.00089  -0.00001   0.00000  -0.00049  -0.00049   0.00039
   D15       -3.14154  -0.00002   0.00000  -0.00077  -0.00076   3.14088
   D16       -2.63058   0.00039   0.00000   0.03376   0.03376  -2.59682
   D17       -0.56872   0.00005   0.00000   0.02706   0.02705  -0.54166
   D18        1.46517  -0.00015   0.00000   0.02397   0.02397   1.48914
   D19       -0.51391   0.00029   0.00000   0.03282   0.03282  -0.48109
   D20        1.54795  -0.00004   0.00000   0.02611   0.02611   1.57406
   D21       -2.70134  -0.00025   0.00000   0.02303   0.02303  -2.67832
   D22        1.63367   0.00066   0.00000   0.03913   0.03913   1.67281
   D23       -2.58765   0.00033   0.00000   0.03243   0.03243  -2.55523
   D24       -0.55376   0.00012   0.00000   0.02934   0.02934  -0.52442
   D25        2.95466  -0.00027   0.00000  -0.01490  -0.01490   2.93976
   D26        0.92222  -0.00009   0.00000  -0.01343  -0.01342   0.90880
   D27       -1.23890  -0.00016   0.00000  -0.01716  -0.01717  -1.25607
   D28        0.04473  -0.00001   0.00000  -0.00287  -0.00287   0.04185
   D29       -3.09613  -0.00009   0.00000  -0.00820  -0.00820  -3.10432
   D30       -3.09603  -0.00001   0.00000  -0.00259  -0.00260  -3.09862
   D31        0.04631  -0.00009   0.00000  -0.00792  -0.00792   0.03839
   D32       -3.14158  -0.00001   0.00000  -0.00031  -0.00031   3.14130
   D33       -0.00066   0.00001   0.00000   0.00030   0.00030  -0.00035
   D34       -0.00085  -0.00001   0.00000  -0.00059  -0.00059  -0.00144
   D35        3.14008   0.00000   0.00000   0.00002   0.00002   3.14009
   D36        0.08574  -0.00018   0.00000  -0.00777  -0.00778   0.07797
   D37       -3.05660  -0.00010   0.00000  -0.00241  -0.00240  -3.05900
   D38       -3.05629  -0.00009   0.00000  -0.00219  -0.00218  -3.05847
   D39        0.08560  -0.00016   0.00000  -0.00683  -0.00684   0.07877
   D40       -1.23503  -0.00014   0.00000  -0.01570  -0.01571  -1.25075
   D41        0.92604  -0.00008   0.00000  -0.01224  -0.01223   0.91381
   D42        2.95831  -0.00026   0.00000  -0.01365  -0.01365   2.94466
   D43       -3.09944  -0.00008   0.00000  -0.00704  -0.00704  -3.10647
   D44        0.04186  -0.00001   0.00000  -0.00243  -0.00243   0.03943
   D45        0.04373  -0.00008   0.00000  -0.00687  -0.00687   0.03686
   D46       -3.09816  -0.00001   0.00000  -0.00226  -0.00226  -3.10042
   D47       -0.00086   0.00000   0.00000   0.00022   0.00022  -0.00064
   D48        3.14159  -0.00001   0.00000  -0.00024  -0.00024   3.14135
   D49        3.13912   0.00000   0.00000   0.00005   0.00005   3.13917
   D50       -0.00162  -0.00001   0.00000  -0.00041  -0.00041  -0.00203
   D51        0.00120  -0.00001   0.00000  -0.00035  -0.00035   0.00085
   D52       -3.14125   0.00000   0.00000   0.00011   0.00011  -3.14114
   D53       -3.14107   0.00001   0.00000   0.00027   0.00027  -3.14080
   D54       -0.00033   0.00002   0.00000   0.00073   0.00073   0.00039
   D55       -0.54765   0.00012   0.00000   0.02923   0.02923  -0.51842
   D56       -2.69525  -0.00025   0.00000   0.02310   0.02310  -2.67215
   D57        1.47136  -0.00015   0.00000   0.02407   0.02407   1.49543
   D58       -2.58187   0.00032   0.00000   0.03231   0.03231  -2.54957
   D59        1.55371  -0.00004   0.00000   0.02618   0.02618   1.57989
   D60       -0.56287   0.00006   0.00000   0.02715   0.02715  -0.53572
   D61        1.63967   0.00066   0.00000   0.03909   0.03909   1.67876
   D62       -0.50793   0.00030   0.00000   0.03296   0.03296  -0.47497
   D63       -2.62451   0.00040   0.00000   0.03393   0.03393  -2.59058
   D64        1.34484   0.00020   0.00000   0.00430   0.00432   1.34916
   D65       -2.89211  -0.00012   0.00000   0.00089   0.00089  -2.89122
   D66       -0.81532  -0.00004   0.00000  -0.00272  -0.00274  -0.81806
         Item               Value     Threshold  Converged?
 Maximum Force            0.003110     0.000450     NO 
 RMS     Force            0.000647     0.000300     NO 
 Maximum Displacement     0.147270     0.001800     NO 
 RMS     Displacement     0.030388     0.001200     NO 
 Predicted change in Energy=-1.445172D-04
 GradGradGradGradGradGradGradGradGradGradGradGradGradGradGradGradGradGrad

                          Input orientation:                          
 ---------------------------------------------------------------------
 Center     Atomic      Atomic             Coordinates (Angstroms)
 Number     Number       Type             X           Y           Z
 ---------------------------------------------------------------------
      1          8           0        4.960521    2.629309    0.580916
      2          1           0        4.117793    2.180066    0.732928
      3          6           0       -0.930982    2.219014    4.091545
      4          1           0       -1.484371    1.313318    4.298178
      5          6           0        0.111391    2.227206    3.182944
      6          1           0        0.398488    1.328220    2.655054
      7          8           0        2.216629    2.373577    1.327598
      8          6           0        3.577582    4.654159    0.823763
      9          1           0        3.758939    5.725746    0.792466
     10          1           0        3.185038    4.321071   -0.138239
     11          6           0        4.863159    3.910760    1.155838
     12          1           0        5.696619    4.486645    0.751719
     13          1           0        4.979266    3.880092    2.246098
     14          6           0        0.806521    3.407604    2.938401
     15          6           0        1.922075    3.367907    1.949782
     16          8           0       -2.684957    4.509407    6.271588
     17          6           0       -1.279065    3.391441    4.755451
     18          6           0       -2.408272    3.333278    5.727571
     19          8           0        2.545468    4.530481    1.824520
     20          6           0        0.459520    4.580489    3.601857
     21          1           0        1.005693    5.491696    3.405100
     22          6           0       -0.585125    4.572460    4.511315
     23          1           0       -0.863317    5.477492    5.031791
     24          8           0       -3.001018    2.312162    5.989276
     25          6           0       -5.112684    4.369302    6.810136
     26          1           0       -5.179530    4.734803    5.778122
     27          1           0       -5.770940    4.987161    7.422035
     28          6           0       -3.688249    4.570346    7.306649
     29          1           0       -3.449910    3.838031    8.079569
     30          1           0       -3.565743    5.574439    7.705365
     31          8           0       -5.591647    3.051175    6.932823
     32          1           0       -4.903893    2.462140    6.593842
 ---------------------------------------------------------------------
                    Distance matrix (angstroms):
                    1          2          3          4          5
     1  O    0.000000
     2  H    0.967015   0.000000
     3  C    6.870420   6.063989   0.000000
     4  H    7.555561   6.696753   1.081306   0.000000
     5  C    5.517816   4.696387   1.382811   2.150674   0.000000
     6  H    5.177550   4.272404   2.150468   2.499048   1.081327
[...]
 0,0.00000014,0.00000878,-0.00008664,0.00004110,0.00008695,0.00004223,0
 .00001415,-0.00003740,-0.00000523,-0.00000348,0.00000283,-0.00000586,0
 .00000060,0.00000487,0.00000433,-0.00000650,0.00000380,-0.00000577,0.0
 0000078,0.00000215,0.00000328,0.00000116,0.00000067,-0.00010175,0.0000
 3102,0.00009765,0.00019468,0.00003096,-0.00016483,-0.00759366,0.001683
 18,-0.00029200,0.00008419,0.00020972,0.00034089,0.00004548,-0.00345211
 ,-0.00146241,-0.00010068,-0.00006683,0.00006529,0.00003593,0.00000459,
 -0.00001258,-0.00001015,-0.00000319,0.00000791,-0.00005394,0.00004339,
 0.00005213,0.00003237,0.00006036,-0.00003729,0.00066600,0.00122397,-0.
 00009515,-0.16062347,0.09801394,0.09194523,0.00296837,-0.00213029,-0.0
 0196390,0.17110632,0.00000141,0.00000087,-0.00000003,-0.00000133,-0.00
 000051,0.00000029,-0.00002677,-0.00003173,0.00001493,-0.00000637,0.000
 00778,0.00000759,-0.00001657,0.00001767,0.00000833,-0.00000502,-0.0000
 0114,0.00000350,0.00000095,0.00000271,0.00000148,-0.00000204,-0.000000
 67,0.00000150,0.00000009,0.00000023,-0.00000010,0.00000006,-0.00000007
 ,-0.00000011,-0.00000048,-0.00000043,-0.00000037,0.00000034,0.00000012
 ,-0.00000017,-0.00000014,-0.00000013,0.00000012,0.00000030,0.00001631,
 0.00000467,-0.00000244,-0.00000257,-0.00000050,-0.00267827,0.00164298,
 0.00065747,0.00010827,0.00019705,0.00013045,-0.00052309,-0.00162947,-0
 .00008920,0.00000440,0.00000347,-0.00000205,0.00001950,0.00000374,-0.0
 0001305,0.00000094,-0.00000006,-0.00000017,0.00000344,-0.00000553,-0.0
 0001057,0.00000544,0.00000838,-0.00000922,0.00088923,0.00091919,-0.000
 32915,0.09095936,-0.12110355,-0.07497170,-0.00476973,0.00608163,0.0031
 3661,-0.09709710,0.15378430,0.00000713,0.00000031,-0.00000260,-0.00000
 847,0.00000092,0.00000359,-0.00001549,0.00000244,0.00002383,-0.0000061
 9,0.00001111,0.00000442,-0.00000856,0.00001671,0.00000586,-0.00000324,
 -0.00000011,0.00000004,0.00002434,-0.00000722,-0.00002025,-0.00001412,
 -0.00000513,0.00001189,0.00000164,0.00000126,-0.00000077,0.00000153,-0
 .00000032,-0.00000143,-0.00000160,0.00000102,-0.00000097,0.00000197,-0
 .00000014,-0.00000079,-0.00000100,-0.00000044,-0.00000020,0.00002142,0
 .00000645,-0.00001677,-0.00005603,-0.00001215,0.00004206,-0.00241769,0
 .00041700,0.00105577,0.00003797,0.00012565,0.00005293,-0.00098030,-0.0
 0065829,0.00000174,0.00003164,0.00002206,-0.00001946,0.00000491,0.0000
 0172,0.00000145,0.00000165,0.00000001,-0.00000192,-0.00000096,-0.00002
 737,0.00000143,-0.00000066,0.00000324,-0.00000979,0.00037116,0.0002310
 8,-0.00001231,0.09349159,-0.08099122,-0.13164279,0.02076132,-0.0162306
 6,-0.01588522,-0.09947222,0.08644310,0.13255174,0.00014158,-0.00003407
 ,-0.00005840,-0.00017086,0.00003988,0.00007571,0.00055494,0.00058388,0
 .00005822,-0.00006222,0.00008584,0.00024553,0.00015218,0.00005231,-0.0
 0052259,0.00006440,-0.00000640,-0.00009421,0.00057073,-0.00027332,-0.0
 0054933,-0.00027533,-0.00008875,0.00025133,0.00003306,0.00002127,-0.00
 001709,0.00003743,-0.00000534,-0.00003254,-0.00002841,0.00004984,-0.00
 001947,0.00003676,-0.00000547,-0.00001363,-0.00002176,-0.00000684,-0.0
 0000632,0.00053885,-0.00019414,-0.00053457,-0.00123511,-0.00016144,0.0
 0100175,-0.12146767,-0.00622534,0.06177041,0.00471989,-0.00275868,-0.0
 0026654,-0.01000421,0.02923732,0.01857822,0.00064241,0.00039565,-0.000
 42402,-0.00002217,-0.00010946,0.00011521,0.00007000,0.00002049,-0.0000
 3513,0.00022997,-0.00015364,-0.00047455,-0.00040331,-0.00032142,0.0000
 8683,-0.00539781,-0.01309018,-0.00408850,-0.17089294,-0.01635004,-0.04
 895037,-0.00703373,0.00254101,0.00076800,-0.01704899,-0.00192132,-0.00
 786376,0.44692681,-0.00004216,-0.00000362,0.00001472,0.00005146,-0.000
 00717,-0.00002387,0.00093069,0.00029071,-0.00077819,-0.00000801,-0.000
 04199,-0.00004378,-0.00010895,-0.00048005,0.00000761,0.00006876,0.0000
 1681,-0.00004618,-0.00017975,0.00008687,0.00017041,0.00008256,0.000032
 88,-0.00007311,-0.00001112,-0.00000785,0.00000623,-0.00001163,0.000001
 28,0.00000957,0.00000672,-0.00000504,0.00000992,-0.00001181,0.00000135
 ,0.00000485,0.00000681,0.00000288,0.00000096,-0.00027991,0.00012068,0.
 00030429,0.00042315,0.00009708,-0.00031137,-0.01778634,-0.08438240,0.0
 1378932,-0.00124148,-0.00413660,-0.00152974,0.03157461,-0.00729100,-0.
 03310626,-0.00019917,-0.00014385,0.00012386,0.00011912,0.00028736,-0.0
 0010952,-0.00001866,-0.00000239,0.00000357,-0.00063428,-0.00020282,0.0
 0050617,0.00027305,0.00060738,0.00009238,0.00127480,0.00303824,0.00070
 819,-0.00388198,-0.08098890,-0.00387853,0.00850959,0.00455026,0.002265
 43,0.01371980,0.00155444,0.00577365,-0.00479451,0.65540549,-0.00016069
 ,0.00003953,0.00005036,0.00019159,-0.00004576,-0.00007292,-0.00007283,
 -0.00059320,0.00034858,0.00020462,-0.00014150,-0.00008949,-0.00050147,
 0.00005445,0.00006190,-0.00009930,0.00002461,0.00003589,-0.00061651,0.
 00029952,0.00061217,0.00030695,0.00009505,-0.00026328,-0.00003474,-0.0
 0002286,0.00002063,-0.00004212,0.00000249,0.00003362,0.00003680,-0.000
 05435,0.00003024,-0.00004033,0.00000632,0.00001478,0.00002201,0.000007
 90,0.00000225,-0.00062942,0.00017266,0.00061932,0.00132263,0.00019546,
 -0.00112494,0.05916025,-0.00010456,-0.13159352,0.00040043,0.00027219,0
 .00571666,0.01823149,-0.03347873,-0.02772972,-0.00070607,-0.00043224,0
 .00045825,0.00011975,0.00018556,0.00000026,-0.00004762,-0.00003189,0.0
 0006963,-0.00064339,0.00011241,0.00037063,0.00032592,0.00063862,-0.000
 30042,0.00152597,0.01568079,-0.00232032,-0.04092623,-0.00480352,-0.101
 28738,-0.03226651,-0.00233347,-0.01331928,0.01748093,0.00132454,0.0058
 5249,0.04617542,-0.01071789,0.51898343,-0.00002388,0.00000321,0.000006
 08,0.00002916,-0.00000642,-0.00001109,-0.00004302,-0.00012501,-0.00005
 021,0.00001206,-0.00000036,-0.00002407,-0.00003545,-0.00002497,0.00008
 307,-0.00000885,-0.00000031,0.00001532,-0.00010288,0.00005049,0.000094
 61,0.00004505,0.00001474,-0.00003993,-0.00000571,-0.00000362,0.0000034
 1,-0.00000704,0.00000064,0.00000508,0.00000478,-0.00000598,0.00000781,
 -0.00000606,0.00000114,0.00000197,0.00000327,0.00000095,-0.00000012,-0
 .00012296,0.00005234,0.00013157,0.00023224,0.00003255,-0.00017351,-0.0
 0293385,-0.01417929,0.02952102,-0.00072136,0.00026007,-0.00031510,0.00
 160391,-0.00555231,-0.00121062,-0.00011167,-0.00007206,0.00006842,0.00
 001704,0.00004099,-0.00005430,-0.00001363,-0.00000465,0.00000862,-0.00
 009814,0.00001485,0.00010056,0.00011829,0.00008906,0.00001478,0.000603
 22,0.00174222,0.00007135,-0.00703214,0.01981909,-0.02426529,-0.0048638
 9,-0.00129434,-0.00116575,-0.00022892,0.00000912,0.00034473,-0.0650164
 7,0.04868952,-0.05073517,0.07395023,-0.00000381,0.00000013,-0.00000244
 ,0.00000330,-0.00000034,0.00000111,-0.00001986,0.00000725,0.00001005,0
 .00001332,-0.00000842,-0.00001625,-0.00000518,0.00002824,-0.00000874,-
 0.00000092,0.00000025,-0.00000016,-0.00000347,-0.00000477,-0.00000167,
 0.00000545,0.00000005,-0.00000140,0.00000043,-0.00000023,0.00000061,-0
 .00000045,-0.00000043,-0.00000012,0.00000213,0.00000014,0.00000267,-0.
 00000054,-0.00000001,0.00000032,-0.00000005,0.00000035,-0.00000116,0.0
 0002433,-0.00002680,-0.00002567,-0.00000690,0.00000403,0.00000636,-0.0
 0366459,0.00509675,-0.00325329,0.00040614,-0.00010659,0.00058956,0.000
 34590,0.00112799,-0.00199115,-0.00000852,-0.00000027,0.00000255,-0.000
 06393,0.00001173,0.00001964,0.00000503,-0.00000268,0.00000800,0.000008
 80,-0.00000940,-0.00004916,0.00002890,0.00000213,-0.00000223,-0.000076
 12,-0.00030600,-0.00021615,-0.00367200,0.00274984,-0.00478497,-0.00088
 666,-0.00010651,-0.00097186,0.00016031,0.00004140,0.00026531,0.0457675
 7,-0.17262147,0.12900028,-0.04660407,0.17872472,0.00001751,-0.00000492
 ,-0.00000437,-0.00002114,0.00000590,0.00000736,-0.00000630,0.00015049,
 0.00010190,0.00000583,-0.00002393,0.00000280,0.00007009,0.00002227,-0.
 00011933,0.00000724,0.00000272,-0.00001450,0.00007487,-0.00003865,-0.0
 0006803,-0.00003176,-0.00000996,0.00002764,0.00000367,0.00000229,-0.00
 000236,0.00000449,-0.00000017,-0.00000336,-0.00000394,0.00000602,-0.00
 000461,0.00000422,-0.00000086,-0.00000136,-0.00000214,-0.00000070,0.00
 000009,0.00007076,-0.00009927,-0.00009192,-0.00015899,-0.00002407,0.00
 011838,0.00682114,0.01114931,-0.02831303,0.00059983,-0.00047151,0.0001
 3509,0.00012754,0.00837735,0.00115526,0.00007522,0.00004495,-0.0000461
 0,-0.00006900,-0.00003918,0.00007611,0.00000559,0.00000337,-0.00000271
 ,0.00006707,0.00001566,-0.00005762,-0.00011291,-0.00010667,-0.00000657
 ,-0.00191820,-0.00256871,0.00102877,-0.00633252,0.00946765,-0.00770535
 ,-0.00154362,0.00011534,0.00000627,-0.00101938,-0.00026110,-0.00069162
 ,-0.04545399,0.12034489,-0.17846973,0.04353275,-0.13778988,0.20063739,
 -0.00001505,0.00000040,0.00000204,0.00001831,-0.00000375,-0.00000638,-
 0.00028484,-0.00018230,0.00016708,0.00001620,-0.00000871,-0.00002079,-
 0.00001695,0.00008974,0.00004753,-0.00002753,-0.00000426,0.00002526,-0
 .00006112,0.00002319,0.00005592,0.00002780,0.00000932,-0.00002317,-0.0
 0000372,-0.00000243,0.00000293,-0.00000442,-0.00000020,0.00000287,0.00
 000311,-0.00000249,0.00000664,-0.00000384,0.00000076,0.00000133,0.0000
 0189,0.00000099,-0.00000078,-0.00006327,0.00001887,0.00006298,0.000141
 73,0.00002266,-0.00011214,-0.00701978,0.02821593,0.01971788,-0.0000595
 3,0.00109194,0.00026280,-0.00253490,-0.00278785,0.00305222,-0.00007325
 ,-0.00005083,0.00004227,0.00000419,-0.00005383,-0.00001626,-0.00001418
 ,-0.00000205,0.00001503,-0.00000721,0.00011301,0.00001353,-0.00000137,
 -0.00002639,0.00003512,0.00098409,0.00080622,-0.00037609,-0.00063809,-
 0.02611131,-0.00699981,-0.00037021,0.00111620,-0.00104726,0.00050421,-
 0.00115171,0.00055206,-0.04855204,-0.03094857,-0.01729316,0.00151312,0
 .00798821,0.00281247,0.06310982,0.00001347,0.00000157,-0.00000119,-0.0
 0001586,0.00000204,0.00000498,0.00006317,0.00004154,-0.00002605,-0.000
 01503,0.00002577,0.00001403,0.00000739,-0.00000153,0.00000862,0.000003
 48,0.00000060,-0.00000582,0.00004874,-0.00001626,-0.00004207,-0.000024
 38,-0.00000850,0.00001970,0.00000296,0.00000227,-0.00000229,0.00000348
 ,-0.00000009,-0.00000237,-0.00000298,0.00000089,-0.00000567,0.00000345
 ,-0.00000044,-0.00000136,-0.00000168,-0.00000091,0.00000087,0.00006166
 ,0.00000529,-0.00005290,-0.00011381,-0.00002458,0.00008468,0.00196065,
 0.00098968,-0.00112916,-0.00005957,-0.00003584,-0.00010855,-0.00127574
 ,0.00098378,0.00098484,0.00006131,0.00004364,-0.00003482,0.00001022,-0
 .00000809,-0.00000126,0.00000690,0.00000222,-0.00000842,0.00005034,-0.
 00000453,-0.00002920,-0.00000533,-0.00005082,-0.00003952,0.00071859,0.
 00042998,-0.00073809,0.00121788,-0.00281653,0.00026321,-0.00043118,-0.
 00022120,0.00003513,-0.00043282,0.00091625,0.00023209,-0.02209965,-0.2
 9510554,-0.09155931,-0.00284571,-0.01627251,-0.00767398,0.02469464,0.3
 1040399,0.00001329,0.00000117,-0.00000478,-0.00001718,0.00000270,0.000
 00788,0.00029318,0.00020777,-0.00016637,-0.00001081,-0.00000220,0.0000
 2482,0.00000115,-0.00008880,-0.00007811,0.00002958,0.00000470,-0.00002
 506,0.00005876,-0.00001961,-0.00005834,-0.00002677,-0.00001051,0.00002
 427,0.00000462,0.00000277,-0.00000222,0.00000427,-0.00000069,-0.000003
 42,-0.00000148,0.00000188,-0.00000394,0.00000387,-0.00000061,-0.000001
 27,-0.00000226,-0.00000068,-0.00000040,0.00006901,-0.00003131,-0.00006
 309,-0.00013816,-0.00003230,0.00012190,0.00919567,-0.03040950,-0.02003
 954,0.00020632,-0.00127323,-0.00014726,0.00334856,0.00486753,-0.002487
 49,0.00007157,0.00005645,-0.00004625,-0.00003149,0.00006363,0.00000958
 ,0.00001819,0.00000080,-0.00001133,-0.00000816,-0.00008990,-0.00006689
 ,0.00006148,-0.00000692,-0.00000089,-0.00131200,-0.00080226,0.00147638
 ,0.00026029,-0.01170777,-0.00219562,-0.00002970,0.00049316,-0.00029159
 ,0.00091615,0.00089631,0.00130651,-0.01459180,-0.08227582,-0.08110318,
 0.00222006,0.02011272,0.01130783,0.00138043,0.10024848,0.09264704,-0.0
 0007892,0.00003070,0.00004393,0.00009646,-0.00002628,-0.00004857,-0.00
 022874,-0.00027707,0.00012640,0.00006422,-0.00011288,-0.00014692,0.000
 04898,0.00001197,-0.00002080,-0.00004077,0.00000572,0.00002424,-0.0003
 2366,0.00018985,0.00034520,0.00015949,0.00004952,-0.00014994,-0.000019
 06,-0.00001165,0.00000877,-0.00002159,0.00000304,0.00002040,0.00001534
 ,-0.00003864,0.00000192,-0.00002111,0.00000339,0.00000737,0.00001269,0
 .00000393,0.00000689,-0.00039257,-0.00008429,0.00032387,0.00072629,0.0
 0003886,-0.00064379,-0.00175610,-0.00070729,0.00085338,-0.00050703,-0.
 00079583,0.00049712,0.00282770,0.00519536,-0.00132658,-0.00037369,-0.0
 0022062,0.00025885,-0.00009358,-0.00001610,0.00006779,-0.00005205,-0.0
 0000792,0.00002815,-0.00015839,0.00030149,0.00030596,0.00007905,0.0000
 7775,-0.00007147,-0.01335366,-0.00068972,0.00522714,-0.10357105,-0.024
 26642,0.01964235,0.00216029,-0.00549596,0.00232720,0.01032665,0.020999
 94,-0.00429751,-0.01040362,-0.04201984,0.00127393,0.00374439,0.0001354
 9,0.00286518,-0.00587665,-0.00187404,-0.00175411,0.39613524,-0.0000074
 7,0.00004741,0.00001173,0.00000712,-0.00002089,-0.00000165,-0.00009665
 ,-0.00016435,0.00006635,-0.00007195,0.00004613,0.00005997,-0.00006607,
 0.00010160,0.00010724,-0.00002449,-0.00000950,0.00001702,-0.00003798,0
 .00009669,0.00005855,0.00000935,-0.00000929,-0.00001246,0.00000399,0.0
 0000422,-0.00000120,0.00000101,-0.00000235,0.00000054,0.00000702,-0.00
 003460,-0.00001442,0.00000081,0.00000159,-0.00000080,-0.00000080,-0.00
 000048,0.00000312,0.00001540,0.00010030,0.00001003,0.00001718,-0.00011
 330,-0.00004876,-0.00648452,0.00680316,0.00516588,0.00001159,0.0013140
 7,-0.00042350,-0.00134972,-0.01397057,-0.00216185,0.00001020,0.0000749
 8,0.00000646,0.00015304,0.00010282,-0.00002732,0.00003428,-0.00000732,
 -0.00002093,0.00002791,-0.00025174,-0.00016259,0.00012214,0.00010631,-
 0.00004166,0.00819556,0.00762836,-0.00141185,-0.06392781,-0.24208900,0
 .02708716,-0.01048418,-0.02729960,0.00991261,-0.00923409,-0.03750082,0
 .00233113,-0.00883374,-0.02254533,-0.00348032,0.00050442,0.00174557,-0
 .00001606,-0.00355045,0.00015258,-0.00047499,-0.11817790,0.52158038,0.
 00003593,-0.00000732,0.00000301,-0.00003918,0.00000875,0.00000435,0.00
 003926,0.00000408,0.00003271,-0.00005655,0.00005374,-0.00000513,-0.000
 03438,0.00002098,0.00005729,-0.00001197,0.00000180,-0.00001133,0.00010
 291,-0.00003910,-0.00006554,-0.00005717,-0.00001553,0.00003791,0.00000
 386,0.00000346,-0.00000493,0.00000614,0.00000154,-0.00000335,-0.000012
 44,0.00000818,-0.00001236,0.00000724,-0.00000090,-0.00000315,-0.000002
 51,-0.00000184,0.00000383,0.00009025,0.00005594,-0.00006685,-0.0002180
 8,-0.00002522,0.00014421,-0.00215017,0.00081066,0.00251196,0.00002416,
 0.00044846,-0.00020074,-0.00110957,-0.00487261,-0.00061374,0.00012459,
 0.00007089,-0.00006209,0.00007510,-0.00000068,0.00000168,0.00000269,0.
 00000269,-0.00001596,-0.00000639,-0.00013751,-0.00003799,-0.00002454,0
 .00002754,-0.00005008,0.00651164,0.00158952,0.00068461,0.02032836,0.01
 431065,-0.07278429,0.01069467,0.03432092,0.00519214,-0.00644420,-0.017
 25235,0.00664272,-0.00484984,-0.01175507,0.00193649,0.00259600,-0.0004
 1183,0.00181299,-0.00260018,-0.00093907,0.00001920,-0.16366368,0.07239
 990,0.13414739,0.00009657,-0.00002641,-0.00004549,-0.00011817,0.000028
 75,0.00005629,0.00028217,0.00026544,-0.00015818,-0.00010902,0.00017920
 ,0.00020840,-0.00012435,0.00002669,0.00011594,0.00004179,-0.00001015,-
 0.00002834,0.00039289,-0.00021701,-0.00040853,-0.00019327,-0.00006271,
 0.00017724,0.00002430,0.00001519,-0.00001238,0.00002753,-0.00000304,-0
 .00002424,-0.00001822,0.00003875,-0.00001094,0.00002602,-0.00000421,-0
 .00000920,-0.00001528,-0.00000510,-0.00000582,0.00052819,0.00019573,-0
 .00040403,-0.00091396,-0.00006297,0.00078813,-0.00198384,0.00619832,0.
 00376143,0.00072791,0.00175448,-0.00097015,-0.00604751,-0.01554905,0.0
 0085653,0.00046853,0.00029271,-0.00031359,0.00022481,0.00003706,-0.000
 11968,0.00007614,0.00000878,-0.00005226,0.00019421,-0.00054562,-0.0004
 1025,-0.00005008,-0.00003278,0.00003578,0.00336922,0.00911101,-0.00037
 809,0.01147507,-0.00978789,-0.00588146,-0.00076718,-0.00127887,0.00101
 098,-0.00005131,-0.00480039,-0.00050727,0.00331764,-0.00355249,-0.0019
 6312,-0.00050082,0.00012175,-0.00049157,-0.00069651,0.00026947,-0.0002
 3252,-0.27912455,0.21322681,0.14063804,0.26944108,0.00000815,-0.000019
 99,-0.00000514,-0.00000979,0.00001095,0.00000275,0.00011269,0.00012170
 ,-0.00005900,0.00003625,0.00002636,0.00000144,-0.00001658,-0.00003851,
 -0.00001589,0.00001479,0.00000546,-0.00001505,0.00004240,-0.00005702,-
 0.00005040,-0.00001495,-0.00000067,0.00001328,0.00000046,-0.00000071,-
 0.00000076,0.00000182,0.00000113,-0.00000174,-0.00000341,0.00001559,0.
 00000324,0.00000117,-0.00000123,-0.00000008,-0.00000044,-0.00000002,-0
 .00000101,0.00005159,0.00000222,-0.00004192,-0.00007702,0.00004391,0.0
 0008115,0.00111768,-0.00189727,-0.00116547,-0.00005999,-0.00028723,-0.
 00012824,-0.00261087,0.00247839,0.00193254,0.00002737,-0.00000811,-0.0
 0002251,-0.00000827,-0.00004832,0.00000128,-0.00000303,0.00000279,0.00
 000038,-0.00000165,0.00001994,0.00003235,-0.00004388,-0.00004008,0.000
 00619,0.00424687,-0.00482968,-0.00168354,0.02843978,-0.03686296,-0.016
 23829,0.00077139,0.00109232,-0.00003386,-0.00269394,-0.00492182,0.0020
 4679,-0.00136133,0.00187227,-0.00031280,-0.00060629,-0.00007413,-0.000
 57860,0.00069507,0.00056529,0.00026699,0.16777546,-0.19588701,-0.08868
 066,-0.19583146,0.23871643,-0.00004248,0.00000611,0.00000305,0.0000489
 4,-0.00000996,-0.00001137,-0.00008574,-0.00001844,-0.00002129,0.000087
 01,-0.00007346,0.00000094,0.00003460,-0.00002927,-0.00009027,0.0000084
 2,-0.00000016,0.00001440,-0.00014104,0.00005651,0.00011067,0.00007390,
 0.00002272,-0.00005551,-0.00000761,-0.00000538,0.00000588,-0.00000950,
 -0.00000038,0.00000637,0.00001185,-0.00000965,0.00001323,-0.00000969,0
 .00000132,0.00000376,0.00000434,0.00000199,-0.00000249,-0.00016341,-0.
 00008153,0.00012037,0.00032083,0.00004173,-0.00023547,0.00148144,-0.00
 272400,-0.00275407,0.00017747,-0.00051039,0.00062888,0.00247518,0.0065
 6248,0.00038295,-0.00017220,-0.00011063,0.00009703,-0.00010781,0.00002
 658,0.00001879,-0.00001353,-0.00000391,0.00001684,0.00003087,0.0001949
 1,0.00005447,0.00001569,-0.00001896,0.00003089,-0.00174411,-0.00363560
 ,-0.00356359,-0.00370489,0.00211227,0.00168558,-0.00033431,0.00166022,
 0.00008089,-0.00005554,0.00030894,0.00074840,-0.00027997,0.00051332,0.
 00245661,-0.00078203,-0.00049108,-0.00081531,0.00023763,0.00050445,-0.
 00014838,0.13786734,-0.10893734,-0.07929498,-0.13522164,0.10464658,0.0
 8051272\\-0.00000746,0.00000108,0.00000658,0.00000462,0.00000137,-0.00
 000418,0.00000368,0.00000129,-0.00000335,-0.00000167,0.00000024,0.0000
 0036,-0.00000413,0.00000148,0.00000238,0.00000114,0.00000064,-0.000001
 97,-0.00000209,0.00000110,0.00000294,0.00000921,0.00000110,-0.00000096
 ,-0.00000074,0.00000118,0.00000178,0.00000098,-0.00000036,0.00000029,-
 0.00000451,-0.00000132,-0.00000119,0.00000067,0.00000237,-0.00000068,0
 .00000180,-0.00000094,-0.00000051,-0.00000231,-0.00000324,0.00000020,0
 .00001228,0.00000855,-0.00000682,0.00001022,-0.00001049,-0.00000539,0.
 00000060,-0.00000361,-0.00000193,-0.00001153,0.00001000,0.00000948,-0.
 00000990,-0.00000851,0.00000396,-0.00000355,0.00000061,0.00000443,0.00
 000132,0.00000049,0.00000023,0.00000404,0.00000063,-0.00000318,-0.0000
 0067,0.00000027,0.00000153,0.00000420,-0.00000093,-0.00000327,0.000002
 34,-0.00000617,0.00000036,-0.00000162,-0.00000118,0.00000053,-0.000000
 83,0.00000053,0.00000057,-0.00000828,0.00000215,0.00000091,-0.00000076
 ,-0.00000241,-0.00000069,0.00000182,-0.00000081,-0.00000002,0.00000608
 ,0.00000195,-0.00000247,-0.00000494,0.00000292,0.00000010\\\@


  DISAPPOINTMENT IS THE NURSE OF WISDOM.               
                              SIR BOYLE ROCHE                 
 Job cpu time:       0 days  9 hours 39 minutes 46.9 seconds.
 Elapsed time:       0 days  0 hours 16 minutes  7.7 seconds.
 File lengths (MBytes):  RWF=   1139 Int=      0 D2E=      0 Chk=     44 Scr=      1
 Normal termination of Gaussian 16 at Wed Jul  3 12:03:22 2019.
