 Entering Gaussian System, Link 0=g16
 Initial command:
 /nopt/nrel/apps/gaussian/g16B/g16/l1.exe "/dev/shm/Gau-156336.inp" -scrdir="/dev/shm/"
 Default is to use a total of  36 processors:
                               36 via shared-memory
                                1 via Linda
 Entering Link 1 = /nopt/nrel/apps/gaussian/g16B/g16/l1.exe PID=    156337.
  
 Copyright (c) 1988-2017, Gaussian, Inc.  All Rights Reserved.
  
 This is part of the Gaussian(R) 16 program.  It is based on
 the Gaussian(R) 09 system (copyright 2009, Gaussian, Inc.),
 the Gaussian(R) 03 system (copyright 2003, Gaussian, Inc.),
 the Gaussian(R) 98 system (copyright 1998, Gaussian, Inc.),
 the Gaussian(R) 94 system (copyright 1995, Gaussian, Inc.),
 the Gaussian 92(TM) system (copyright 1992, Gaussian, Inc.),
 the Gaussian 90(TM) system (copyright 1990, Gaussian, Inc.),
 the Gaussian 88(TM) system (copyright 1988, Gaussian, Inc.),
 the Gaussian 86(TM) system (copyright 1986, Carnegie Mellon
 University), and the Gaussian 82(TM) system (copyright 1983,
 Carnegie Mellon University). Gaussian is a federally registered
 trademark of Gaussian, Inc.
  
 This software contains proprietary and confidential information,
 including trade secrets, belonging to Gaussian, Inc.
  
 This software is provided under written license and may be
 used, copied, transmitted, or stored only in accord with that
 written license.
  
 The following legend is applicable only to US Government
 contracts under FAR:
  
                    RESTRICTED RIGHTS LEGEND
  
 Use, reproduction and disclosure by the US Government is
 subject to restrictions as set forth in subparagraphs (a)
 and (c) of the Commercial Computer Software - Restricted
 Rights clause in FAR 52.227-19.
  
 Gaussian, Inc.
 340 Quinnipiac St., Bldg. 40, Wallingford CT 06492
  
  
 ---------------------------------------------------------------
 Warning -- This program may not be used in any manner that
 competes with the business of Gaussian, Inc. or will provide
 assistance to any competitor of Gaussian, Inc.  The licensee
 of this program is prohibited from giving any competitor of
 Gaussian, Inc. access to this program.  By using this program,
 the user acknowledges that Gaussian, Inc. is engaged in the
 business of creating and licensing software in the field of
 computational chemistry and represents and warrants to the
 licensee that it is not a competitor of Gaussian, Inc. and that
 it will not use this program in any manner prohibited above.
 ---------------------------------------------------------------
  

 Cite this work as:
 Gaussian 16, Revision B.01,
 M. J. Frisch, G. W. Trucks, H. B. Schlegel, G. E. Scuseria, 
 M. A. Robb, J. R. Cheeseman, G. Scalmani, V. Barone, 
 G. A. Petersson, H. Nakatsuji, X. Li, M. Caricato, A. V. Marenich, 
 J. Bloino, B. G. Janesko, R. Gomperts, B. Mennucci, H. P. Hratchian, 
 J. V. Ortiz, A. F. Izmaylov, J. L. Sonnenberg, D. Williams-Young, 
 F. Ding, F. Lipparini, F. Egidi, J. Goings, B. Peng, A. Petrone, 
 T. Henderson, D. Ranasinghe, V. G. Zakrzewski, J. Gao, N. Rega, 
 G. Zheng, W. Liang, M. Hada, M. Ehara, K. Toyota, R. Fukuda, 
 J. Hasegawa, M. Ishida, T. Nakajima, Y. Honda, O. Kitao, H. Nakai, 
 T. Vreven, K. Throssell, J. A. Montgomery, Jr., J. E. Peralta, 
 F. Ogliaro, M. J. Bearpark, J. J. Heyd, E. N. Brothers, K. N. Kudin, 
 V. N. Staroverov, T. A. Keith, R. Kobayashi, J. Normand, 
 K. Raghavachari, A. P. Rendell, J. C. Burant, S. S. Iyengar, 
 J. Tomasi, M. Cossi, J. M. Millam, M. Klene, C. Adamo, R. Cammi, 
 J. W. Ochterski, R. L. Martin, K. Morokuma, O. Farkas, 
 J. B. Foresman, and D. J. Fox, Gaussian, Inc., Wallingford CT, 2016.
 
 ******************************************
 Gaussian 16:  ES64L-G16RevB.01 20-Dec-2017
                 9-Aug-2019 
 ******************************************
 %RWF=/dev/shm/,5GB,/tmp/scratch/1138162/,-1
 %NoSave
 %OldChk=tieg4pdc2.chk
 %Chk=/dev/shm/tieg4pdc2_optfreq.chk
 Copying data from "tieg4pdc2.chk" to current chk file "/dev/shm/tieg4pdc2_optfreq.chk"
 IOpt=  2 FromEx=T IUOpen= 4 IOptOp= 5 NList=   0 IFRang= 0 IUIn= 4 IUOut= 2.
 Default route: CacheSize=180224 MaxDisk=256GB
 ----------------------------------------------------------------------
 # m062x/Def2TZVP nosymm scf=xqc opt=ReadFC geom=allcheck guess=read fr
 eq=noraman CPHF=Grid=Fine SCRF=(Solvent=1,2-EthaneDiol,Read)
 ----------------------------------------------------------------------
 1/4=180224,10=3,18=20,19=15,26=3,29=7,38=1,40=2/1,3;
 2/4=180224,9=110,12=2,15=1,40=1/2;
 3/4=180224,5=44,7=101,11=2,14=-4,25=1,30=1,70=2203,71=1,72=30,74=-55,116=-2/1,2,3;
 4/4=180224,5=1/1;
 5/4=180224,5=2,8=3,13=1,38=6,53=30/2,8;
 6/4=180224,7=2,8=2,9=2,10=2,28=1/1;
 7/4=180224,30=1/1,2,3,16;
 1/4=180224,18=20,19=15,26=3/3(2);
 2/4=180224,9=110,15=1/2;
 99/4=180224/99;
 2/4=180224,9=110,15=1/2;
 3/4=180224,5=44,7=101,11=2,14=-2,25=1,30=1,70=2205,71=1,72=30,74=-55/1,2,3;
 4/4=180224,5=5,16=3,69=1/1;
 5/4=180224,5=2,8=3,13=1,38=5,53=30/2,8;
 7/4=180224,30=1/1,2,3,16;
 1/4=180224,18=20,19=15,26=3/3(-5);
 2/4=180224,9=110,15=1/2;
 6/4=180224,7=2,8=2,9=2,10=2,19=2,28=1/1;
 99/4=180224,9=1/99;
 Structure from the checkpoint file:  "/dev/shm/tieg4pdc2_optfreq.chk"
 -----------------------
 based on TiOBu4 complex
 -----------------------
 Charge =  0 Multiplicity = 1
 Redundant internal coordinates found in file.  (old form).
 O,0,5.6271373641,-4.1633943074,-0.6427887904
 Ti,0,4.9680746498,-5.8200284387,-0.5302145243
 O,0,3.7237252869,-5.8826289776,-1.8846346492
 O,0,6.3106368255,-6.9015533443,-1.2188540027
 O,0,3.8120785842,-5.5917788505,0.9528786695
 C,0,3.8003143166,-4.453149659,1.7582231027
 C,0,2.9832599336,-3.3346893735,1.1226537929
 C,0,6.6501662879,-3.3706299902,-0.1245837118
 C,0,6.1585030855,-1.9484009114,0.1190412917
 O,0,7.1839645057,-1.1344686424,0.6347897359
 C,0,7.0556070812,-7.7887461608,-0.442024486
 C,0,7.463694234,-7.0294475497,0.8115698218
 O,0,6.3112226365,-6.2786845302,1.2154108803
 C,0,2.6436707578,-6.7690576529,-1.8300545088
 C,0,3.1582777692,-8.1042215027,-1.3125747556
 O,0,3.9313063998,-7.8459859732,-0.1388304509
 H,0,7.0236270441,-3.7932374239,0.8267490225
 H,0,7.4998946646,-3.3443109527,-0.8325175083
 H,0,5.74060083,-1.5485667991,-0.8229507207
 H,0,5.3451478926,-1.9586163232,0.8608576677
 H,0,1.86494724,-6.3811761882,-1.1452483253
 H,0,2.1822938642,-6.8865591724,-2.8253140368
 H,0,2.3521790418,-8.8219170786,-1.1026419558
 H,0,3.8563241654,-8.5487824829,-2.0368542115
 H,0,6.4433830107,-8.6690529113,-0.1669611107
 H,0,7.9396294993,-8.1509608147,-0.9911079112
 H,0,7.8138893284,-7.6749991001,1.6273657977
 H,0,8.2431995487,-6.2914915704,0.5763507203
 H,0,3.3703510211,-4.6983323995,2.7485090351
 H,0,4.8260776542,-4.0747689558,1.9418080726
 H,0,1.9368242074,-3.6685357626,0.9983618333
 H,0,3.392809826,-3.1331786701,0.121282532
 O,0,3.070896314,-2.1348818474,1.8553088329
 H,0,3.3508450897,-7.5140518608,0.5688545893
 H,0,2.7149798681,-2.2913056385,2.7386469609
 H,0,7.8587366496,-1.0314035189,-0.0469537854
 H,0,5.8047012946,-6.7268288561,1.9075938727
 O,0,6.768908836,-11.2044302722,-3.7220948716
 H,0,7.552177337,-11.6843452585,-3.4046872844
 C,0,6.9984206011,-9.9053030196,-3.6036370027
 O,0,8.0118101598,-9.4248735468,-3.1701970141
 O,0,4.7990728407,-9.762248982,-4.555714847
 C,0,5.847754182,-9.0701582911,-4.0693317971
 O,0,2.7929162003,-9.8553516325,-5.4841384165
 C,0,3.6647686604,-9.1578488796,-5.0451773795
 C,0,5.8662764299,-7.7254158947,-3.991195546
 C,0,3.6496944734,-7.6985285479,-4.9640395242
 C,0,4.7018442822,-7.0179351065,-4.4476835633
 H,0,6.712444189,-7.204116736,-3.5524311435
 C,0,4.7131803072,-5.5185980021,-4.358806455
 H,0,2.7569662876,-7.1983050956,-5.3363946637
 O,0,5.6897959679,-4.8906413059,-4.0505206912
 O,0,3.5486045859,-4.9816056396,-4.7002271495
 H,0,3.6145168866,-4.0170795977,-4.6090494368
 Recover connectivity data from disk.

 GradGradGradGradGradGradGradGradGradGradGradGradGradGradGradGradGradGrad
 Berny optimization.
 Initialization pass.
 Force constant matrix read from checkpoint file:
 "/dev/shm/tieg4pdc2_optfreq.chk"
                           ----------------------------
                           !    Initial Parameters    !
                           ! (Angstroms and Degrees)  !
 --------------------------                            --------------------------
 ! Name  Definition              Value          Derivative Info.                !
 --------------------------------------------------------------------------------
 ! R1    R(1,2)                  1.7865         D2E/DX2 =    0.2642             !
 ! R2    R(1,8)                  1.3941         D2E/DX2 =    0.3986             !
 ! R3    R(2,4)                  1.8564         D2E/DX2 =    0.2343             !
 ! R4    R(2,5)                  1.8942         D2E/DX2 =    0.1831             !
 ! R5    R(2,52)                 3.7118         D2E/DX2 =    0.1037             !
 ! R6    R(3,14)                 1.3983         D2E/DX2 =    0.4306             !
 ! R7    R(3,49)                 3.6688         D2E/DX2 =    0.0786             !
 ! R8    R(4,11)                 1.3948         D2E/DX2 =    0.4426             !
 ! R9    R(5,6)                  1.3947         D2E/DX2 =    0.4003             !
 ! R10   R(6,7)                  1.524          D2E/DX2 =    0.2926             !
 ! R11   R(6,29)                 1.1071         D2E/DX2 =    0.3239             !
 ! R12   R(6,30)                 1.1086         D2E/DX2 =    0.3226             !
 ! R13   R(7,31)                 1.1054         D2E/DX2 =    0.3285             !
 ! R14   R(7,32)                 1.1005         D2E/DX2 =    0.3436             !
 ! R15   R(7,33)                 1.4085         D2E/DX2 =    0.3863             !
 ! R16   R(8,9)                  1.5244         D2E/DX2 =    0.2916             !
 ! R17   R(8,17)                 1.1059         D2E/DX2 =    0.3288             !
 ! R18   R(8,18)                 1.1063         D2E/DX2 =    0.3261             !
 ! R19   R(9,10)                 1.4071         D2E/DX2 =    0.3904             !
 ! R20   R(9,19)                 1.1054         D2E/DX2 =    0.3284             !
 ! R21   R(9,20)                 1.1009         D2E/DX2 =    0.3437             !
 ! R22   R(10,36)                0.9647         D2E/DX2 =    0.5376             !
 ! R23   R(11,12)                1.5214         D2E/DX2 =    0.3273             !
 ! R24   R(11,25)                1.107          D2E/DX2 =    0.3251             !
 ! R25   R(11,26)                1.1019         D2E/DX2 =    0.3397             !
 ! R26   R(12,13)                1.4335         D2E/DX2 =    0.3705             !
 ! R27   R(12,27)                1.0977         D2E/DX2 =    0.3499             !
 ! R28   R(12,28)                1.0989         D2E/DX2 =    0.3456             !
 ! R29   R(13,37)                0.9677         D2E/DX2 =    0.5314             !
 ! R30   R(14,15)                1.5216         D2E/DX2 =    0.3213             !
 ! R31   R(14,21)                1.1072         D2E/DX2 =    0.3245             !
 ! R32   R(14,22)                1.1033         D2E/DX2 =    0.3362             !
 ! R33   R(15,16)                1.429          D2E/DX2 =    0.3593             !
 ! R34   R(15,23)                1.0995         D2E/DX2 =    0.3451             !
 ! R35   R(15,24)                1.0998         D2E/DX2 =    0.3459             !
 ! R36   R(16,34)                0.9736         D2E/DX2 =    0.5026             !
 ! R37   R(33,35)                0.9651         D2E/DX2 =    0.5368             !
 ! R38   R(38,39)                0.9719         D2E/DX2 =    0.5175             !
 ! R39   R(38,40)                1.3246         D2E/DX2 =    0.4867             !
 ! R40   R(40,41)                1.2023         D2E/DX2 =    0.9177             !
 ! R41   R(40,43)                1.4961         D2E/DX2 =    0.3319             !
 ! R42   R(42,43)                1.3473         D2E/DX2 =    0.3869             !
 ! R43   R(42,45)                1.3753         D2E/DX2 =    0.3192             !
 ! R44   R(43,46)                1.3471         D2E/DX2 =    0.5355             !
 ! R45   R(44,45)                1.1997         D2E/DX2 =    0.9206             !
 ! R46   R(45,47)                1.4617         D2E/DX2 =    0.3175             !
 ! R47   R(46,48)                1.4369         D2E/DX2 =    0.5776             !
 ! R48   R(46,49)                1.0864         D2E/DX2 =    0.5896             !
 ! R49   R(47,48)                1.3553         D2E/DX2 =    0.5204             !
 ! R50   R(47,51)                1.089          D2E/DX2 =    0.3748             !
 ! R51   R(48,50)                1.502          D2E/DX2 =    0.3961             !
 ! R52   R(50,52)                1.2013         D2E/DX2 =    1.1091             !
 ! R53   R(50,53)                1.3271         D2E/DX2 =    0.4758             !
 ! R54   R(53,54)                0.9711         D2E/DX2 =    0.5208             !
 ! A1    A(2,1,8)              140.7698         D2E/DX2 =    0.0608             !
 ! A2    A(1,2,4)              104.4813         D2E/DX2 =    0.0742             !
 ! A3    A(1,2,5)               99.3661         D2E/DX2 =    0.0891             !
 ! A4    A(1,2,52)              68.673          D2E/DX2 =    0.0579             !
 ! A5    A(4,2,5)              143.3203         D2E/DX2 =    0.0851             !
 ! A6    A(4,2,52)              69.7231         D2E/DX2 =    0.094              !
 ! A7    A(5,2,52)             146.209          D2E/DX2 =    0.0732             !
 ! A8    A(14,3,49)            114.7478         D2E/DX2 =    0.2299             !
 ! A9    A(2,4,11)             123.3815         D2E/DX2 =    0.8818             !
 ! A10   A(2,5,6)              123.7542         D2E/DX2 =    0.2892             !
 ! A11   A(5,6,7)              111.2765         D2E/DX2 =    0.165              !
 ! A12   A(5,6,29)             109.8148         D2E/DX2 =    0.0645             !
 ! A13   A(5,6,30)             111.4971         D2E/DX2 =    0.0628             !
 ! A14   A(7,6,29)             109.1089         D2E/DX2 =    0.0776             !
 ! A15   A(7,6,30)             108.3388         D2E/DX2 =    0.0727             !
 ! A16   A(29,6,30)            106.6667         D2E/DX2 =    0.0266             !
 ! A17   A(6,7,31)             109.4373         D2E/DX2 =    0.0717             !
 ! A18   A(6,7,32)             108.3215         D2E/DX2 =    0.0703             !
 ! A19   A(6,7,33)             112.0161         D2E/DX2 =    0.1562             !
 ! A20   A(31,7,32)            107.7754         D2E/DX2 =    0.0266             !
 ! A21   A(31,7,33)            112.002          D2E/DX2 =    0.0664             !
 ! A22   A(32,7,33)            107.1079         D2E/DX2 =    0.0599             !
 ! A23   A(1,8,9)              110.6868         D2E/DX2 =    0.1706             !
 ! A24   A(1,8,17)             110.5024         D2E/DX2 =    0.062              !
 ! A25   A(1,8,18)             109.834          D2E/DX2 =    0.064              !
 ! A26   A(9,8,17)             109.1444         D2E/DX2 =    0.0704             !
 ! A27   A(9,8,18)             109.1353         D2E/DX2 =    0.0741             !
 ! A28   A(17,8,18)            107.468          D2E/DX2 =    0.027              !
 ! A29   A(8,9,10)             111.2963         D2E/DX2 =    0.1519             !
 ! A30   A(8,9,19)             108.8574         D2E/DX2 =    0.0702             !
 ! A31   A(8,9,20)             109.7138         D2E/DX2 =    0.0738             !
 ! A32   A(10,9,19)            112.2491         D2E/DX2 =    0.0633             !
 ! A33   A(10,9,20)            107.2661         D2E/DX2 =    0.0613             !
 ! A34   A(19,9,20)            107.354          D2E/DX2 =    0.0272             !
 ! A35   A(9,10,36)            108.2103         D2E/DX2 =    0.1808             !
 ! A36   A(4,11,12)            106.5423         D2E/DX2 =    0.5722             !
 ! A37   A(4,11,25)            110.4148         D2E/DX2 =    0.086              !
 ! A38   A(4,11,26)            111.1031         D2E/DX2 =    0.125              !
 ! A39   A(12,11,25)           109.907          D2E/DX2 =    0.0918             !
 ! A40   A(12,11,26)           111.067          D2E/DX2 =    0.1234             !
 ! A41   A(25,11,26)           107.8251         D2E/DX2 =    0.0317             !
 ! A42   A(11,12,13)           106.133          D2E/DX2 =    0.3407             !
 ! A43   A(11,12,27)           113.8567         D2E/DX2 =    0.0723             !
 ! A44   A(11,12,28)           110.4301         D2E/DX2 =    0.0723             !
 ! A45   A(13,12,27)           110.801          D2E/DX2 =    0.1079             !
 ! A46   A(13,12,28)           106.1939         D2E/DX2 =    0.0698             !
 ! A47   A(27,12,28)           109.1304         D2E/DX2 =    0.0305             !
 ! A48   A(12,13,37)           112.3193         D2E/DX2 =    0.1594             !
 ! A49   A(3,14,15)            107.9571         D2E/DX2 =    0.4804             !
 ! A50   A(3,14,21)            110.2014         D2E/DX2 =    0.0817             !
 ! A51   A(3,14,22)            110.8127         D2E/DX2 =    0.1175             !
 ! A52   A(15,14,21)           109.5684         D2E/DX2 =    0.1102             !
 ! A53   A(15,14,22)           110.7794         D2E/DX2 =    0.1286             !
 ! A54   A(21,14,22)           107.5264         D2E/DX2 =    0.0302             !
 ! A55   A(14,15,16)           107.6819         D2E/DX2 =    0.3055             !
 ! A56   A(14,15,23)           112.9385         D2E/DX2 =    0.0733             !
 ! A57   A(14,15,24)           110.2058         D2E/DX2 =    0.0725             !
 ! A58   A(16,15,23)           110.9611         D2E/DX2 =    0.0978             !
 ! A59   A(16,15,24)           105.7021         D2E/DX2 =    0.0763             !
 ! A60   A(23,15,24)           109.1003         D2E/DX2 =    0.0295             !
 ! A61   A(15,16,34)           109.6412         D2E/DX2 =    0.1892             !
 ! A62   A(7,33,35)            108.3654         D2E/DX2 =    0.1785             !
 ! A63   A(39,38,40)           108.3887         D2E/DX2 =    0.1685             !
 ! A64   A(38,40,41)           124.7634         D2E/DX2 =    0.2019             !
 ! A65   A(38,40,43)           112.73           D2E/DX2 =    0.1841             !
 ! A66   A(41,40,43)           122.5065         D2E/DX2 =    0.1687             !
 ! A67   A(43,42,45)           123.0025         D2E/DX2 =    0.1106             !
 ! A68   A(40,43,42)           115.1034         D2E/DX2 =    0.1548             !
 ! A69   A(40,43,46)           121.91           D2E/DX2 =    0.1375             !
 ! A70   A(42,43,46)           122.9839         D2E/DX2 =    0.136              !
 ! A71   A(42,45,44)           118.2993         D2E/DX2 =    0.1753             !
 ! A72   A(42,45,47)           115.3096         D2E/DX2 =    0.0989             !
 ! A73   A(44,45,47)           126.3899         D2E/DX2 =    0.142              !
 ! A74   A(43,46,48)           117.5102         D2E/DX2 =    0.1524             !
 ! A75   A(43,46,49)           120.872          D2E/DX2 =    0.628              !
 ! A76   A(48,46,49)           121.548          D2E/DX2 =    1.1268             !
 ! A77   A(45,47,48)           120.9648         D2E/DX2 =    0.1028             !
 ! A78   A(45,47,51)           116.6218         D2E/DX2 =    0.0807             !
 ! A79   A(48,47,51)           122.4133         D2E/DX2 =    0.0797             !
 ! A80   A(46,48,47)           120.1908         D2E/DX2 =    0.096              !
 ! A81   A(46,48,50)           117.8112         D2E/DX2 =    0.4783             !
 ! A82   A(47,48,50)           121.9838         D2E/DX2 =    0.3842             !
 ! A83   A(3,49,46)             73.8555         D2E/DX2 =    9.6128             !
 ! A84   A(48,50,52)           122.896          D2E/DX2 =    0.3626             !
 ! A85   A(48,50,53)           112.4621         D2E/DX2 =    0.2417             !
 ! A86   A(52,50,53)           124.6047         D2E/DX2 =    0.2592             !
 ! A87   A(2,52,50)             87.3881         D2E/DX2 =    9.4769             !
 ! A88   A(50,53,54)           108.5537         D2E/DX2 =    0.1673             !
 ! D1    D(8,1,2,4)            -65.3673         D2E/DX2 =    0.0321             !
 ! D2    D(8,1,2,5)             86.5287         D2E/DX2 =    0.0225             !
 ! D3    D(8,1,2,52)          -126.3497         D2E/DX2 =    0.0272             !
 ! D4    D(2,1,8,9)           -141.4115         D2E/DX2 =    0.024              !
 ! D5    D(2,1,8,17)           -20.3835         D2E/DX2 =    0.0256             !
 ! D6    D(2,1,8,18)            98.0121         D2E/DX2 =    0.0264             !
 ! D7    D(1,2,4,11)           111.0426         D2E/DX2 =    0.0465             !
 ! D8    D(5,2,4,11)           -17.87           D2E/DX2 =    0.0233             !
 ! D9    D(52,2,4,11)          171.3162         D2E/DX2 =    0.021              !
 ! D10   D(1,2,5,6)             -9.957          D2E/DX2 =    0.0403             !
 ! D11   D(4,2,5,6)            120.2637         D2E/DX2 =    0.0266             !
 ! D12   D(52,2,5,6)           -75.3564         D2E/DX2 =    0.0236             !
 ! D13   D(1,2,52,50)         -143.9032         D2E/DX2 =    0.0599             !
 ! D14   D(4,2,52,50)          100.6022         D2E/DX2 =    0.0646             !
 ! D15   D(5,2,52,50)          -69.5248         D2E/DX2 =    0.0558             !
 ! D16   D(49,3,14,15)          49.066          D2E/DX2 =    0.1803             !
 ! D17   D(49,3,14,21)         168.697          D2E/DX2 =    0.0782             !
 ! D18   D(49,3,14,22)         -72.4116         D2E/DX2 =    0.0816             !
 ! D19   D(14,3,49,46)          27.5223         D2E/DX2 =    0.7726             !
 ! D20   D(2,4,11,12)          -45.6971         D2E/DX2 =    0.0924             !
 ! D21   D(2,4,11,25)           73.6137         D2E/DX2 =    0.0491             !
 ! D22   D(2,4,11,26)         -166.7991         D2E/DX2 =    0.0599             !
 ! D23   D(2,5,6,7)             81.6488         D2E/DX2 =    0.036              !
 ! D24   D(2,5,6,29)          -157.4387         D2E/DX2 =    0.0303             !
 ! D25   D(2,5,6,30)           -39.4332         D2E/DX2 =    0.028              !
 ! D26   D(5,6,7,31)            61.1312         D2E/DX2 =    0.0193             !
 ! D27   D(5,6,7,32)           -56.1191         D2E/DX2 =    0.0203             !
 ! D28   D(5,6,7,33)          -174.0333         D2E/DX2 =    0.0246             !
 ! D29   D(29,6,7,31)          -60.1945         D2E/DX2 =    0.0177             !
 ! D30   D(29,6,7,32)         -177.4448         D2E/DX2 =    0.0163             !
 ! D31   D(29,6,7,33)           64.641          D2E/DX2 =    0.0187             !
 ! D32   D(30,6,7,31)         -175.9549         D2E/DX2 =    0.0162             !
 ! D33   D(30,6,7,32)           66.7948         D2E/DX2 =    0.0182             !
 ! D34   D(30,6,7,33)          -51.1194         D2E/DX2 =    0.0188             !
 ! D35   D(6,7,33,35)          -61.4091         D2E/DX2 =    0.0166             !
 ! D36   D(31,7,33,35)          61.9944         D2E/DX2 =    0.0229             !
 ! D37   D(32,7,33,35)         179.9559         D2E/DX2 =    0.0231             !
 ! D38   D(1,8,9,10)          -179.6368         D2E/DX2 =    0.0197             !
 ! D39   D(1,8,9,19)           -55.4031         D2E/DX2 =    0.018              !
 ! D40   D(1,8,9,20)            61.8035         D2E/DX2 =    0.0194             !
 ! D41   D(17,8,9,10)           58.5341         D2E/DX2 =    0.018              !
 ! D42   D(17,8,9,19)         -177.2322         D2E/DX2 =    0.0162             !
 ! D43   D(17,8,9,20)          -60.0256         D2E/DX2 =    0.0181             !
 ! D44   D(18,8,9,10)          -58.6454         D2E/DX2 =    0.0182             !
 ! D45   D(18,8,9,19)           65.5883         D2E/DX2 =    0.0178             !
 ! D46   D(18,8,9,20)         -177.2052         D2E/DX2 =    0.0167             !
 ! D47   D(8,9,10,36)           66.5397         D2E/DX2 =    0.0173             !
 ! D48   D(19,9,10,36)         -55.7551         D2E/DX2 =    0.0232             !
 ! D49   D(20,9,10,36)        -173.4412         D2E/DX2 =    0.024              !
 ! D50   D(4,11,12,13)          41.9634         D2E/DX2 =    0.0501             !
 ! D51   D(4,11,12,27)         164.1134         D2E/DX2 =    0.0311             !
 ! D52   D(4,11,12,28)         -72.7171         D2E/DX2 =    0.0234             !
 ! D53   D(25,11,12,13)        -77.6773         D2E/DX2 =    0.0267             !
 ! D54   D(25,11,12,27)         44.4727         D2E/DX2 =    0.0205             !
 ! D55   D(25,11,12,28)        167.6422         D2E/DX2 =    0.0279             !
 ! D56   D(26,11,12,13)        163.0884         D2E/DX2 =    0.037              !
 ! D57   D(26,11,12,27)        -74.7615         D2E/DX2 =    0.0227             !
 ! D58   D(26,11,12,28)         48.408          D2E/DX2 =    0.0194             !
 ! D59   D(11,12,13,37)         97.2615         D2E/DX2 =    0.0196             !
 ! D60   D(27,12,13,37)        -26.8131         D2E/DX2 =    0.0221             !
 ! D61   D(28,12,13,37)       -145.197          D2E/DX2 =    0.0313             !
 ! D62   D(3,14,15,16)          49.0524         D2E/DX2 =    0.0573             !
 ! D63   D(3,14,15,23)         171.9152         D2E/DX2 =    0.0309             !
 ! D64   D(3,14,15,24)         -65.7829         D2E/DX2 =    0.0246             !
 ! D65   D(21,14,15,16)        -70.9778         D2E/DX2 =    0.0323             !
 ! D66   D(21,14,15,23)         51.8849         D2E/DX2 =    0.0196             !
 ! D67   D(21,14,15,24)        174.1868         D2E/DX2 =    0.0264             !
 ! D68   D(22,14,15,16)        170.5507         D2E/DX2 =    0.0429             !
 ! D69   D(22,14,15,23)        -66.5866         D2E/DX2 =    0.0206             !
 ! D70   D(22,14,15,24)         55.7153         D2E/DX2 =    0.0207             !
 ! D71   D(14,15,16,34)         66.6477         D2E/DX2 =    0.0225             !
 ! D72   D(23,15,16,34)        -57.4206         D2E/DX2 =    0.0279             !
 ! D73   D(24,15,16,34)       -175.5648         D2E/DX2 =    0.0299             !
 ! D74   D(39,38,40,41)         -0.1772         D2E/DX2 =    0.0206             !
 ! D75   D(39,38,40,43)        179.9346         D2E/DX2 =    0.0217             !
 ! D76   D(38,40,43,42)         -1.5866         D2E/DX2 =    0.0168             !
 ! D77   D(38,40,43,46)        177.8291         D2E/DX2 =    0.0142             !
 ! D78   D(41,40,43,42)        178.5224         D2E/DX2 =    0.02               !
 ! D79   D(41,40,43,46)         -2.0619         D2E/DX2 =    0.0177             !
 ! D80   D(45,42,43,40)       -179.0417         D2E/DX2 =    0.0458             !
 ! D81   D(45,42,43,46)          1.5495         D2E/DX2 =    0.0211             !
 ! D82   D(43,42,45,44)        178.4504         D2E/DX2 =    0.0161             !
 ! D83   D(43,42,45,47)         -1.9145         D2E/DX2 =    0.0124             !
 ! D84   D(40,43,46,48)       -179.0991         D2E/DX2 =    0.0384             !
 ! D85   D(40,43,46,49)         -2.0912         D2E/DX2 =    0.171              !
 ! D86   D(42,43,46,48)          0.2702         D2E/DX2 =    0.028              !
 ! D87   D(42,43,46,49)        177.2781         D2E/DX2 =    0.2451             !
 ! D88   D(42,45,47,48)          0.5633         D2E/DX2 =    0.0239             !
 ! D89   D(42,45,47,51)       -179.3931         D2E/DX2 =    0.029              !
 ! D90   D(44,45,47,48)       -179.8359         D2E/DX2 =    0.02               !
 ! D91   D(44,45,47,51)          0.2077         D2E/DX2 =    0.0203             !
 ! D92   D(43,46,48,47)         -1.57           D2E/DX2 =    0.0242             !
 ! D93   D(43,46,48,50)        179.7737         D2E/DX2 =    0.1609             !
 ! D94   D(49,46,48,47)       -178.5564         D2E/DX2 =    0.3258             !
 ! D95   D(49,46,48,50)          2.7873         D2E/DX2 =    0.3576             !
 ! D96   D(43,46,49,3)        -128.8699         D2E/DX2 =    0.8672             !
 ! D97   D(48,46,49,3)          48.016          D2E/DX2 =    1.4684             !
 ! D98   D(45,47,48,46)          1.1309         D2E/DX2 =    0.0292             !
 ! D99   D(45,47,48,50)        179.7297         D2E/DX2 =    0.1034             !
 ! D100  D(51,47,48,46)       -178.9152         D2E/DX2 =    0.0155             !
 ! D101  D(51,47,48,50)         -0.3164         D2E/DX2 =    0.0635             !
 ! D102  D(46,48,50,52)          7.4859         D2E/DX2 =    0.7918             !
 ! D103  D(46,48,50,53)       -174.6404         D2E/DX2 =    0.4411             !
 ! D104  D(47,48,50,52)       -171.1448         D2E/DX2 =    0.6988             !
 ! D105  D(47,48,50,53)          6.7289         D2E/DX2 =    0.203              !
 ! D106  D(48,50,52,2)         -78.2689         D2E/DX2 =    1.353              !
 ! D107  D(53,50,52,2)         104.1186         D2E/DX2 =    0.8742             !
 ! D108  D(48,50,53,54)        179.0954         D2E/DX2 =    0.0913             !
 ! D109  D(52,50,53,54)         -3.0737         D2E/DX2 =    0.0912             !
 --------------------------------------------------------------------------------
 Trust Radius=3.00D-01 FncErr=1.00D-07 GrdErr=1.00D-06 EigMax=2.50D+02 EigMin=1.00D-04
 Number of steps in this run=    261 maximum allowed number of steps=    324.
 GradGradGradGradGradGradGradGradGradGradGradGradGradGradGradGradGradGrad

 Symmetry turned off by external request.
 Stoichiometry    C15H24O14Ti
 Framework group  C1[X(C15H24O14Ti)]
 Deg. of freedom   156
 Full point group                 C1      NOp   1
                          Input orientation:                          
 ---------------------------------------------------------------------
 Center     Atomic      Atomic             Coordinates (Angstroms)
 Number     Number       Type             X           Y           Z
 ---------------------------------------------------------------------
      1          8           0        5.627137   -4.163394   -0.642789
      2         22           0        4.968075   -5.820028   -0.530215
      3          8           0        3.723725   -5.882629   -1.884635
      4          8           0        6.310637   -6.901553   -1.218854
      5          8           0        3.812079   -5.591779    0.952879
      6          6           0        3.800314   -4.453150    1.758223
      7          6           0        2.983260   -3.334689    1.122654
      8          6           0        6.650166   -3.370630   -0.124584
      9          6           0        6.158503   -1.948401    0.119041
     10          8           0        7.183965   -1.134469    0.634790
     11          6           0        7.055607   -7.788746   -0.442024
     12          6           0        7.463694   -7.029448    0.811570
     13          8           0        6.311223   -6.278685    1.215411
     14          6           0        2.643671   -6.769058   -1.830055
     15          6           0        3.158278   -8.104222   -1.312575
     16          8           0        3.931306   -7.845986   -0.138830
     17          1           0        7.023627   -3.793237    0.826749
     18          1           0        7.499895   -3.344311   -0.832518
     19          1           0        5.740601   -1.548567   -0.822951
     20          1           0        5.345148   -1.958616    0.860858
     21          1           0        1.864947   -6.381176   -1.145248
     22          1           0        2.182294   -6.886559   -2.825314
     23          1           0        2.352179   -8.821917   -1.102642
     24          1           0        3.856324   -8.548782   -2.036854
     25          1           0        6.443383   -8.669053   -0.166961
     26          1           0        7.939629   -8.150961   -0.991108
     27          1           0        7.813889   -7.674999    1.627366
     28          1           0        8.243200   -6.291492    0.576351
     29          1           0        3.370351   -4.698332    2.748509
     30          1           0        4.826078   -4.074769    1.941808
     31          1           0        1.936824   -3.668536    0.998362
     32          1           0        3.392810   -3.133179    0.121283
     33          8           0        3.070896   -2.134882    1.855309
     34          1           0        3.350845   -7.514052    0.568855
     35          1           0        2.714980   -2.291306    2.738647
     36          1           0        7.858737   -1.031404   -0.046954
     37          1           0        5.804701   -6.726829    1.907594
     38          8           0        6.768909  -11.204430   -3.722095
     39          1           0        7.552177  -11.684345   -3.404687
     40          6           0        6.998421   -9.905303   -3.603637
     41          8           0        8.011810   -9.424874   -3.170197
     42          8           0        4.799073   -9.762249   -4.555715
     43          6           0        5.847754   -9.070158   -4.069332
     44          8           0        2.792916   -9.855352   -5.484138
     45          6           0        3.664769   -9.157849   -5.045177
     46          6           0        5.866276   -7.725416   -3.991196
     47          6           0        3.649694   -7.698529   -4.964040
     48          6           0        4.701844   -7.017935   -4.447684
     49          1           0        6.712444   -7.204117   -3.552431
     50          6           0        4.713180   -5.518598   -4.358806
     51          1           0        2.756966   -7.198305   -5.336395
     52          8           0        5.689796   -4.890641   -4.050521
     53          8           0        3.548605   -4.981606   -4.700227
     54          1           0        3.614517   -4.017080   -4.609049
 ---------------------------------------------------------------------
 Rotational constants (GHZ):           0.2300052           0.0943842           0.0879274
 Standard basis: def2TZVP (5D, 7F)
  1088 basis functions,  1773 primitive gaussians,  1240 cartesian basis functions
   124 alpha electrons      124 beta electrons
       nuclear repulsion energy      3969.4432634065 Hartrees.
 NAtoms=   54 NActive=   54 NUniq=   54 SFac= 1.00D+00 NAtFMM=   60 NAOKFM=F Big=F
 Integral buffers will be    131072 words long.
 Raffenetti 2 integral format.
 Two-electron integral symmetry is turned off.
 Using the following non-standard input for PCM:
 PDENS=7.0
 --- end of non-standard input.
 ------------------------------------------------------------------------------
 Polarizable Continuum Model (PCM)
 =================================
 Model                : PCM.
 Atomic radii         : UFF (Universal Force Field).
 Polarization charges : Total charges.
 Charge compensation  : None.
 Solution method      : On-the-fly selection.
 Cavity type          : Scaled VdW (van der Waals Surface) (Alpha=1.100).
 Cavity algorithm     : GePol (No added spheres)
                        Default sphere list used, NSphG=   54.
                        Lebedev-Laikov grids with approx.  7.0 points / Ang**2.
                        Smoothing algorithm: York/Karplus (Gamma=1.0000).
                        Polarization charges: spherical gaussians, with
                                              point-specific exponents (IZeta= 3).
                        Self-potential: point-specific (ISelfS= 7).
                        Self-field    : sphere-specific E.n sum rule (ISelfD= 2).
 1st derivatives      : Analytical E(r).r(x)/FMM algorithm (CHGder, D1EAlg=3).
                        Cavity 1st derivative terms included.
 Solvent              : 1,2-EthaneDiol, Eps=  40.245000 Eps(inf)=   2.050051
 ------------------------------------------------------------------------------
 One-electron integrals computed using PRISM.
   1 Symmetry operations used in ECPInt.
 ECPInt:  NShTT=   92665 NPrTT=  289949 LenC2=   75350 LenP2D=  158118.
 LDataN:  DoStor=T MaxTD1= 6 Len=  172
 NBasis=  1088 RedAO= T EigKep=  1.65D-05  NBF=  1088
 NBsUse=  1088 1.00D-06 EigRej= -1.00D+00 NBFU=  1088
 Initial guess from the checkpoint file:  "/dev/shm/tieg4pdc2_optfreq.chk"
 B after Tr=     0.000000    0.000000    0.000000
         Rot=    1.000000    0.000000    0.000000    0.000000 Ang=   0.00 deg.
 Requested convergence on RMS density matrix=1.00D-08 within  32 cycles.
 Requested convergence on MAX density matrix=1.00D-06.
 Requested convergence on             energy=1.00D-06.
 No special actions if energy rises.
 Inv3:  Mode=1 IEnd=    90816012.
 Iteration    1 A*A^-1 deviation from unit magnitude is 3.44D-15 for   2431.
 Iteration    1 A*A^-1 deviation from orthogonality  is 2.94D-15 for   5166   4796.
 Iteration    1 A^-1*A deviation from unit magnitude is 3.55D-15 for   4964.
 Iteration    1 A^-1*A deviation from orthogonality  is 3.42D-14 for   3876   3750.
 Error on total polarization charges =  0.01417
 SCF Done:  E(RM062X) =  -2488.87638762     A.U. after   14 cycles
            NFock= 14  Conv=0.15D-08     -V/T= 2.0034
 QCSCF skips out because SCF is already converged.

 **********************************************************************

            Population analysis using the SCF Density.

 **********************************************************************

 Alpha  occ. eigenvalues -- -180.47974 -20.47777 -19.72273 -19.69473 -19.68791
 Alpha  occ. eigenvalues --  -19.67295 -19.66319 -19.64136 -19.63692 -19.63356
 Alpha  occ. eigenvalues --  -19.63105 -19.63045 -19.61959 -19.61253 -19.60053
 Alpha  occ. eigenvalues --  -19.59906 -17.17209 -17.17141 -17.17055 -10.70641
 Alpha  occ. eigenvalues --  -10.70240 -10.70057 -10.64904 -10.60713 -10.59740
 Alpha  occ. eigenvalues --  -10.59541 -10.58888 -10.58834 -10.58431 -10.57928
 Alpha  occ. eigenvalues --  -10.57904 -10.57815 -10.57599 -10.57526  -2.62066
 Alpha  occ. eigenvalues --   -1.68947  -1.68562  -1.68455  -1.28377  -1.26133
 Alpha  occ. eigenvalues --   -1.25864  -1.19093  -1.18363  -1.18170  -1.16866
 Alpha  occ. eigenvalues --   -1.16327  -1.15441  -1.15271  -1.11077  -1.10500
 Alpha  occ. eigenvalues --   -1.09848  -1.09254  -0.97127  -0.91222  -0.83574
 Alpha  occ. eigenvalues --   -0.83283  -0.81956  -0.81306  -0.80845  -0.80542
 Alpha  occ. eigenvalues --   -0.74202  -0.71753  -0.71062  -0.70932  -0.70423
 Alpha  occ. eigenvalues --   -0.69620  -0.65310  -0.63413  -0.62307  -0.60870
 Alpha  occ. eigenvalues --   -0.60853  -0.60259  -0.60025  -0.59781  -0.59286
 Alpha  occ. eigenvalues --   -0.58491  -0.57842  -0.57031  -0.56789  -0.56380
 Alpha  occ. eigenvalues --   -0.55677  -0.55583  -0.55516  -0.55307  -0.54705
 Alpha  occ. eigenvalues --   -0.54514  -0.53097  -0.52709  -0.51936  -0.51297
 Alpha  occ. eigenvalues --   -0.50822  -0.50152  -0.49686  -0.49157  -0.48848
 Alpha  occ. eigenvalues --   -0.48157  -0.48007  -0.47407  -0.46725  -0.46585
 Alpha  occ. eigenvalues --   -0.46497  -0.44383  -0.43498  -0.42891  -0.42560
 Alpha  occ. eigenvalues --   -0.42196  -0.41914  -0.41333  -0.41122  -0.40569
 Alpha  occ. eigenvalues --   -0.40487  -0.39181  -0.38922  -0.38113  -0.37012
 Alpha  occ. eigenvalues --   -0.36873  -0.36574  -0.36271  -0.34784  -0.34528
 Alpha  occ. eigenvalues --   -0.34248  -0.32915  -0.32379  -0.31377
 Alpha virt. eigenvalues --   -0.07624  -0.01667  -0.00446   0.01452   0.01871
 Alpha virt. eigenvalues --    0.03165   0.05664   0.06019   0.06372   0.06698
 Alpha virt. eigenvalues --    0.06777   0.07129   0.07321   0.08252   0.08412
 Alpha virt. eigenvalues --    0.08738   0.09014   0.09815   0.10205   0.10387
 Alpha virt. eigenvalues --    0.11301   0.11697   0.12126   0.12611   0.13135
 Alpha virt. eigenvalues --    0.13829   0.14451   0.14918   0.15423   0.15643
 Alpha virt. eigenvalues --    0.16201   0.16267   0.16774   0.17083   0.17549
 Alpha virt. eigenvalues --    0.17875   0.18403   0.18713   0.18853   0.19356
 Alpha virt. eigenvalues --    0.19568   0.20216   0.20853   0.21114   0.21294
 Alpha virt. eigenvalues --    0.22018   0.22185   0.22565   0.22962   0.23192
 Alpha virt. eigenvalues --    0.23813   0.24043   0.24533   0.25015   0.25134
 Alpha virt. eigenvalues --    0.25838   0.25902   0.26293   0.26889   0.26983
 Alpha virt. eigenvalues --    0.27556   0.28561   0.28677   0.28833   0.29176
 Alpha virt. eigenvalues --    0.29626   0.30533   0.30896   0.31102   0.31494
 Alpha virt. eigenvalues --    0.31741   0.32195   0.33156   0.33326   0.33975
 Alpha virt. eigenvalues --    0.34412   0.34558   0.34870   0.35352   0.35805
 Alpha virt. eigenvalues --    0.36159   0.37070   0.37438   0.37871   0.38383
 Alpha virt. eigenvalues --    0.38853   0.38933   0.39315   0.40221   0.40398
 Alpha virt. eigenvalues --    0.40613   0.41003   0.41090   0.41453   0.42047
 Alpha virt. eigenvalues --    0.42168   0.42381   0.42425   0.43313   0.43561
 Alpha virt. eigenvalues --    0.43819   0.44384   0.44520   0.44866   0.45081
 Alpha virt. eigenvalues --    0.45561   0.45759   0.46024   0.46536   0.46630
 Alpha virt. eigenvalues --    0.46892   0.47203   0.47654   0.47976   0.48609
 Alpha virt. eigenvalues --    0.48642   0.48867   0.49349   0.49745   0.50166
 Alpha virt. eigenvalues --    0.50894   0.50923   0.51153   0.51488   0.51812
 Alpha virt. eigenvalues --    0.52089   0.52420   0.52727   0.52941   0.53397
 Alpha virt. eigenvalues --    0.53586   0.54166   0.54646   0.54873   0.55456
 Alpha virt. eigenvalues --    0.55701   0.56003   0.56685   0.56952   0.57209
 Alpha virt. eigenvalues --    0.57796   0.58352   0.58668   0.58797   0.59380
 Alpha virt. eigenvalues --    0.59672   0.60377   0.60795   0.61548   0.61637
 Alpha virt. eigenvalues --    0.61989   0.62547   0.63432   0.63906   0.64241
 Alpha virt. eigenvalues --    0.64519   0.64905   0.65520   0.65914   0.66318
 Alpha virt. eigenvalues --    0.66831   0.67324   0.67829   0.68421   0.68895
 Alpha virt. eigenvalues --    0.69017   0.69808   0.69998   0.70491   0.70784
 Alpha virt. eigenvalues --    0.71409   0.71745   0.72041   0.72879   0.73984
 Alpha virt. eigenvalues --    0.74536   0.74977   0.75137   0.75475   0.76361
 Alpha virt. eigenvalues --    0.76617   0.76809   0.77297   0.77529   0.78034
 Alpha virt. eigenvalues --    0.78381   0.78961   0.79212   0.79674   0.79933
 Alpha virt. eigenvalues --    0.81132   0.81447   0.82027   0.82409   0.83198
 Alpha virt. eigenvalues --    0.83905   0.84275   0.84672   0.85569   0.85705
 Alpha virt. eigenvalues --    0.86330   0.86997   0.88171   0.88241   0.88976
 Alpha virt. eigenvalues --    0.89362   0.89457   0.90397   0.90603   0.91298
 Alpha virt. eigenvalues --    0.91854   0.92145   0.92903   0.93115   0.93371
 Alpha virt. eigenvalues --    0.94021   0.95161   0.95468   0.95790   0.96988
 Alpha virt. eigenvalues --    0.97362   0.97727   0.98154   0.98967   0.99312
 Alpha virt. eigenvalues --    1.00070   1.00357   1.00771   1.01799   1.01933
 Alpha virt. eigenvalues --    1.02697   1.03436   1.04488   1.05600   1.06098
 Alpha virt. eigenvalues --    1.06802   1.07281   1.07894   1.08334   1.09371
 Alpha virt. eigenvalues --    1.09883   1.10329   1.10700   1.11125   1.12082
 Alpha virt. eigenvalues --    1.12450   1.12707   1.13731   1.13996   1.15225
 Alpha virt. eigenvalues --    1.15995   1.17498   1.17509   1.18469   1.19439
 Alpha virt. eigenvalues --    1.20238   1.20700   1.20734   1.21685   1.22718
 Alpha virt. eigenvalues --    1.22828   1.24373   1.24981   1.25245   1.26379
 Alpha virt. eigenvalues --    1.26503   1.26990   1.27373   1.29210   1.29419
 Alpha virt. eigenvalues --    1.30020   1.30178   1.31773   1.32346   1.33275
 Alpha virt. eigenvalues --    1.33624   1.34671   1.34856   1.35557   1.36440
 Alpha virt. eigenvalues --    1.37619   1.38231   1.39601   1.40040   1.40465
 Alpha virt. eigenvalues --    1.40954   1.41263   1.42042   1.42906   1.44180
 Alpha virt. eigenvalues --    1.45375   1.46061   1.46295   1.47147   1.47960
 Alpha virt. eigenvalues --    1.48680   1.49493   1.49853   1.51032   1.51466
 Alpha virt. eigenvalues --    1.51833   1.52870   1.53162   1.53763   1.54362
 Alpha virt. eigenvalues --    1.54467   1.55402   1.55847   1.56522   1.56652
 Alpha virt. eigenvalues --    1.56897   1.57684   1.58372   1.59412   1.59557
 Alpha virt. eigenvalues --    1.59705   1.60196   1.60981   1.61289   1.61709
 Alpha virt. eigenvalues --    1.61913   1.62142   1.62980   1.63162   1.63916
 Alpha virt. eigenvalues --    1.64730   1.64886   1.65287   1.66386   1.66612
 Alpha virt. eigenvalues --    1.66864   1.67393   1.68085   1.68416   1.69105
 Alpha virt. eigenvalues --    1.69733   1.69991   1.70647   1.70805   1.71316
 Alpha virt. eigenvalues --    1.72007   1.72449   1.73143   1.74540   1.74732
 Alpha virt. eigenvalues --    1.75275   1.76175   1.77072   1.77472   1.78789
 Alpha virt. eigenvalues --    1.79447   1.80180   1.80398   1.81538   1.81905
 Alpha virt. eigenvalues --    1.82519   1.82903   1.83488   1.84468   1.84838
 Alpha virt. eigenvalues --    1.85055   1.85292   1.86035   1.86548   1.87098
 Alpha virt. eigenvalues --    1.87713   1.88120   1.88432   1.89149   1.89952
 Alpha virt. eigenvalues --    1.91025   1.91300   1.91437   1.92402   1.93053
 Alpha virt. eigenvalues --    1.93551   1.94051   1.94695   1.94948   1.95912
 Alpha virt. eigenvalues --    1.96021   1.96470   1.98063   1.98516   1.98987
 Alpha virt. eigenvalues --    1.99971   2.00167   2.00565   2.00819   2.01118
 Alpha virt. eigenvalues --    2.01635   2.02087   2.02504   2.03098   2.03767
 Alpha virt. eigenvalues --    2.04760   2.05293   2.05825   2.06079   2.06370
 Alpha virt. eigenvalues --    2.07008   2.07223   2.07987   2.08570   2.09247
 Alpha virt. eigenvalues --    2.09742   2.10402   2.10928   2.11288   2.11982
 Alpha virt. eigenvalues --    2.12676   2.13540   2.14084   2.15029   2.15504
 Alpha virt. eigenvalues --    2.16318   2.16528   2.17458   2.17684   2.18119
 Alpha virt. eigenvalues --    2.18506   2.19313   2.19665   2.20152   2.20988
 Alpha virt. eigenvalues --    2.21599   2.21756   2.23778   2.24009   2.24737
 Alpha virt. eigenvalues --    2.25355   2.25982   2.26710   2.27106   2.27499
 Alpha virt. eigenvalues --    2.28659   2.29202   2.29532   2.29953   2.30064
 Alpha virt. eigenvalues --    2.30596   2.31097   2.32512   2.33282   2.33586
 Alpha virt. eigenvalues --    2.34243   2.34792   2.35888   2.36458   2.37110
 Alpha virt. eigenvalues --    2.38062   2.38918   2.39415   2.40170   2.40411
 Alpha virt. eigenvalues --    2.40896   2.41234   2.41457   2.42280   2.42689
 Alpha virt. eigenvalues --    2.43428   2.43693   2.44188   2.44597   2.46211
 Alpha virt. eigenvalues --    2.47515   2.48025   2.48503   2.48843   2.49001
 Alpha virt. eigenvalues --    2.49384   2.50186   2.50758   2.51410   2.51929
 Alpha virt. eigenvalues --    2.52447   2.52819   2.53530   2.53978   2.54622
 Alpha virt. eigenvalues --    2.55445   2.56260   2.56961   2.57732   2.58063
 Alpha virt. eigenvalues --    2.58696   2.59362   2.59916   2.60585   2.61683
 Alpha virt. eigenvalues --    2.61950   2.62366   2.63279   2.63585   2.64027
 Alpha virt. eigenvalues --    2.64504   2.65048   2.65292   2.65890   2.66596
 Alpha virt. eigenvalues --    2.66820   2.67477   2.67864   2.68103   2.68572
 Alpha virt. eigenvalues --    2.69386   2.69980   2.70689   2.71479   2.71817
 Alpha virt. eigenvalues --    2.72806   2.73111   2.73451   2.74153   2.74621
 Alpha virt. eigenvalues --    2.75887   2.76185   2.76399   2.76755   2.77583
 Alpha virt. eigenvalues --    2.78474   2.79339   2.80359   2.81237   2.81882
 Alpha virt. eigenvalues --    2.82554   2.82987   2.83232   2.83841   2.84090
 Alpha virt. eigenvalues --    2.84178   2.85146   2.85582   2.85963   2.86971
 Alpha virt. eigenvalues --    2.87129   2.87769   2.88498   2.89059   2.89204
 Alpha virt. eigenvalues --    2.90497   2.90986   2.91479   2.91937   2.92485
 Alpha virt. eigenvalues --    2.93311   2.94029   2.94658   2.95744   2.96444
 Alpha virt. eigenvalues --    2.96947   2.97925   2.98718   2.99998   3.00222
 Alpha virt. eigenvalues --    3.01326   3.02264   3.03218   3.04055   3.04565
 Alpha virt. eigenvalues --    3.04742   3.05670   3.06198   3.06769   3.07115
 Alpha virt. eigenvalues --    3.07455   3.08189   3.09222   3.09684   3.10539
 Alpha virt. eigenvalues --    3.11260   3.12098   3.12464   3.13750   3.14570
 Alpha virt. eigenvalues --    3.14919   3.15144   3.15827   3.15975   3.16651
 Alpha virt. eigenvalues --    3.17075   3.17536   3.17591   3.18380   3.18953
 Alpha virt. eigenvalues --    3.19375   3.19959   3.20340   3.20506   3.21309
 Alpha virt. eigenvalues --    3.21979   3.22277   3.22713   3.23292   3.23583
 Alpha virt. eigenvalues --    3.24207   3.24469   3.25041   3.25893   3.26484
 Alpha virt. eigenvalues --    3.26970   3.27169   3.27879   3.28076   3.28440
 Alpha virt. eigenvalues --    3.29626   3.30313   3.30399   3.30986   3.31700
 Alpha virt. eigenvalues --    3.32501   3.33079   3.33185   3.33761   3.33975
 Alpha virt. eigenvalues --    3.34808   3.35397   3.35848   3.36254   3.37057
 Alpha virt. eigenvalues --    3.37453   3.37932   3.38241   3.38392   3.38650
 Alpha virt. eigenvalues --    3.39343   3.39769   3.40164   3.40781   3.41260
 Alpha virt. eigenvalues --    3.41518   3.41982   3.42535   3.42953   3.43243
 Alpha virt. eigenvalues --    3.43871   3.44077   3.44932   3.45661   3.46593
 Alpha virt. eigenvalues --    3.47014   3.48411   3.48890   3.49123   3.49889
 Alpha virt. eigenvalues --    3.51237   3.51888   3.52476   3.53213   3.53577
 Alpha virt. eigenvalues --    3.54862   3.55349   3.55984   3.56465   3.57664
 Alpha virt. eigenvalues --    3.58345   3.58823   3.59725   3.60005   3.60667
 Alpha virt. eigenvalues --    3.60744   3.61716   3.61967   3.62320   3.64335
 Alpha virt. eigenvalues --    3.64704   3.66375   3.66882   3.68953   3.69301
 Alpha virt. eigenvalues --    3.70812   3.71722   3.73970   3.76168   3.76948
 Alpha virt. eigenvalues --    3.77953   3.78296   3.79118   3.80387   3.80758
 Alpha virt. eigenvalues --    3.81121   3.82380   3.84019   3.86846   3.87174
 Alpha virt. eigenvalues --    3.87769   3.88074   3.89336   3.89849   3.90410
 Alpha virt. eigenvalues --    3.91124   3.91526   3.92918   3.93347   3.93959
 Alpha virt. eigenvalues --    3.94752   3.96053   3.97891   3.98100   3.99712
 Alpha virt. eigenvalues --    4.00255   4.01241   4.03040   4.04974   4.05113
 Alpha virt. eigenvalues --    4.05587   4.05885   4.06669   4.07311   4.09734
 Alpha virt. eigenvalues --    4.10140   4.10982   4.11724   4.16701   4.19098
 Alpha virt. eigenvalues --    4.20950   4.21916   4.22770   4.23552   4.24798
 Alpha virt. eigenvalues --    4.25322   4.25988   4.27290   4.29474   4.30464
 Alpha virt. eigenvalues --    4.34605   4.36087   4.37570   4.39683   4.39936
 Alpha virt. eigenvalues --    4.40471   4.42204   4.42461   4.43889   4.44349
 Alpha virt. eigenvalues --    4.46372   4.47593   4.47963   4.48910   4.50390
 Alpha virt. eigenvalues --    4.52643   4.53766   4.58168   4.58911   4.60783
 Alpha virt. eigenvalues --    4.61582   4.64133   4.65869   4.67515   4.70139
 Alpha virt. eigenvalues --    4.71813   4.72280   4.73213   4.74505   4.74676
 Alpha virt. eigenvalues --    4.75851   4.78628   4.80611   4.81996   4.84119
 Alpha virt. eigenvalues --    4.90571   4.96293   4.98838   5.01500   5.10450
 Alpha virt. eigenvalues --    5.14122   5.14387   5.15455   5.18344   5.18699
 Alpha virt. eigenvalues --    5.19399   5.20397   5.22064   5.22343   5.22798
 Alpha virt. eigenvalues --    5.24215   5.24899   5.25037   5.25781   5.26475
 Alpha virt. eigenvalues --    5.27036   5.27143   5.27401   5.27602   5.27816
 Alpha virt. eigenvalues --    5.28510   5.29115   5.29376   5.33094   5.35098
 Alpha virt. eigenvalues --    5.35588   5.35992   5.37415   5.39008   5.39464
 Alpha virt. eigenvalues --    5.41342   5.41652   5.42909   5.44603   5.45096
 Alpha virt. eigenvalues --    5.45970   5.46883   5.47277   5.47882   5.48633
 Alpha virt. eigenvalues --    5.49548   5.50051   5.50898   5.52387   5.53071
 Alpha virt. eigenvalues --    5.55693   5.57019   5.60940   5.63762   5.67892
 Alpha virt. eigenvalues --    5.70528   5.71561   5.72087   5.73231   5.76750
 Alpha virt. eigenvalues --    5.77498   5.78715   5.79369   5.79639   5.80679
 Alpha virt. eigenvalues --    5.81874   5.82509   5.83218   5.85286   5.85446
 Alpha virt. eigenvalues --    5.86476   5.87234   5.87758   5.87846   5.88868
 Alpha virt. eigenvalues --    5.89505   5.90013   5.92841   5.93375   5.93697
 Alpha virt. eigenvalues --    5.94405   5.97615   5.99492   6.02785   6.04728
 Alpha virt. eigenvalues --    6.08144   6.11491   6.13537   6.16856   6.17077
 Alpha virt. eigenvalues --    6.17533   6.19526   6.25215   6.25828   6.25876
 Alpha virt. eigenvalues --    6.26650   6.27637   6.29470   6.31499   6.32484
 Alpha virt. eigenvalues --    6.34424   6.36027   6.39544   6.40763   6.42373
 Alpha virt. eigenvalues --    6.43810   6.44136   6.44955   6.45152   6.45986
 Alpha virt. eigenvalues --    6.47607   6.49986   6.51190   6.51853   6.52658
 Alpha virt. eigenvalues --    6.53416   6.54083   6.57428   6.58434   6.59765
 Alpha virt. eigenvalues --    6.62276   6.65955   6.66170   6.67045   6.67925
 Alpha virt. eigenvalues --    6.68432   6.68755   6.69846   6.70584   6.71231
 Alpha virt. eigenvalues --    6.74652   6.76256   6.76530   6.77526   6.77942
 Alpha virt. eigenvalues --    6.78596   6.80671   6.81084   6.81279   6.81885
 Alpha virt. eigenvalues --    6.82883   6.83696   6.86277   6.86701   6.87382
 Alpha virt. eigenvalues --    6.89193   6.89642   6.94412   6.94682   6.94749
 Alpha virt. eigenvalues --    6.95888   7.00971   7.03035   7.04731   7.06720
 Alpha virt. eigenvalues --    7.07455   7.09031   7.09816   7.09948   7.11040
 Alpha virt. eigenvalues --    7.12537   7.12601   7.13546   7.14422   7.14605
 Alpha virt. eigenvalues --    7.16052   7.16767   7.17149   7.18338   7.23239
 Alpha virt. eigenvalues --    7.30217   7.33960   7.38303   7.42019   7.46480
 Alpha virt. eigenvalues --   22.51322  22.56323  22.57889  22.59146  22.61018
 Alpha virt. eigenvalues --   22.63623  22.65132  22.69315  22.69589  22.83558
 Alpha virt. eigenvalues --   23.12984  23.20834  23.45932  23.52797  23.58407
 Alpha virt. eigenvalues --   43.94720  43.97959  44.01924  44.04013  44.05683
 Alpha virt. eigenvalues --   44.06067  44.07553  44.15279  44.17880  44.26034
 Alpha virt. eigenvalues --   44.28433  44.34029  44.38637  44.60981
          Condensed to atoms (all electrons):
 Mulliken charges:
               1
     1  O   -0.572868
     2  Ti   1.258439
     3  O   -0.560339
     4  O   -0.562051
     5  O   -0.626453
     6  C   -0.143949
     7  C   -0.116313
     8  C   -0.187872
     9  C   -0.058721
    10  O   -0.519459
    11  C   -0.114915
    12  C   -0.097521
    13  O   -0.457570
    14  C   -0.141872
    15  C   -0.009071
    16  O   -0.460792
    17  H    0.168861
    18  H    0.151030
    19  H    0.142062
    20  H    0.139438
    21  H    0.160761
    22  H    0.161730
    23  H    0.169408
    24  H    0.111962
    25  H    0.152303
    26  H    0.151795
    27  H    0.170251
    28  H    0.163539
    29  H    0.144612
    30  H    0.158123
    31  H    0.134421
    32  H    0.160472
    33  O   -0.517437
    34  H    0.387968
    35  H    0.341436
    36  H    0.342426
    37  H    0.393131
    38  O   -0.395791
    39  H    0.376718
    40  C    0.347524
    41  O   -0.355420
    42  O   -0.207929
    43  C    0.178790
    44  O   -0.353317
    45  C    0.339119
    46  C   -0.170873
    47  C   -0.271474
    48  C    0.051700
    49  H    0.220327
    50  C    0.393763
    51  H    0.213453
    52  O   -0.348113
    53  O   -0.409745
    54  H    0.374300
 Sum of Mulliken charges =  -0.00000
 Mulliken charges with hydrogens summed into heavy atoms:
               1
     1  O   -0.572868
     2  Ti   1.258439
     3  O   -0.560339
     4  O   -0.562051
     5  O   -0.626453
     6  C    0.158785
     7  C    0.178581
     8  C    0.132019
     9  C    0.222778
    10  O   -0.177033
    11  C    0.189183
    12  C    0.236269
    13  O   -0.064439
    14  C    0.180619
    15  C    0.272300
    16  O   -0.072824
    33  O   -0.176001
    38  O   -0.019073
    40  C    0.347524
    41  O   -0.355420
    42  O   -0.207929
    43  C    0.178790
    44  O   -0.353317
    45  C    0.339119
    46  C    0.049454
    47  C   -0.058021
    48  C    0.051700
    50  C    0.393763
    52  O   -0.348113
    53  O   -0.035445
 Electronic spatial extent (au):  <R**2>=          73880.2582
 Charge=             -0.0000 electrons
 Dipole moment (field-independent basis, Debye):
    X=              0.3396    Y=             -3.7040    Z=              5.3280  Tot=              6.4979
 Quadrupole moment (field-independent basis, Debye-Ang):
   XX=           -173.6073   YY=           -157.2431   ZZ=           -194.5192
   XY=            -38.5189   XZ=             17.7552   YZ=            -61.4327
 Traceless Quadrupole moment (field-independent basis, Debye-Ang):
   XX=              1.5159   YY=             17.8801   ZZ=            -19.3960
   XY=            -38.5189   XZ=             17.7552   YZ=            -61.4327
 Octapole moment (field-independent basis, Debye-Ang**2):
  XXX=          -2652.3516  YYY=           3325.7580  ZZZ=           1060.7867  XYY=           -450.8421
  XXY=            853.1136  XXZ=            399.5868  XZZ=           -955.8226  YZZ=           1376.0407
  YYZ=            872.3936  XYZ=           -189.8301
 Hexadecapole moment (field-independent basis, Debye-Ang**3):
 XXXX=         -29765.7449 YYYY=         -50236.1449 ZZZZ=          -9768.3927 XXXY=          15533.2922
 XXXZ=           5154.6991 YYYX=          12236.3966 YYYZ=         -13154.6286 ZZZX=           4812.9948
 ZZZY=          -9477.0896 XXYY=          -9518.2349 XXZZ=          -6911.0269 YYZZ=         -12752.5646
 XXYZ=          -3419.7285 YYXZ=           2646.4186 ZZXY=           6217.7587
 N-N= 3.969443263406D+03 E-N=-1.379862802797D+04  KE= 2.480480924811D+03
   1 Symmetry operations used in ECPInt.
 ECPInt:  NShTT=   92665 NPrTT=  289949 LenC2=   75350 LenP2D=  158118.
 LDataN:  DoStor=T MaxTD1= 7 Len=  274
 D1PCM: PCM CHGder 1st derivatives, ID1Alg=3 FixD1E=F DoIter=F DoCFld=F I1PDM=0.
 Calling FoFJK, ICntrl=      2127 FMM=F ISym2X=0 I1Cent= 0 IOpClX= 0 NMat=1 NMatS=1 NMatT=0.
 -------------------------------------------------------------------
 Center     Atomic                   Forces (Hartrees/Bohr)
 Number     Number              X              Y              Z
 -------------------------------------------------------------------
      1        8           0.001586167    0.006686628   -0.001793184
      2       22          -0.000597457   -0.005330193    0.003663706
      3        8          -0.001708644    0.002060033   -0.003684669
      4        8           0.002492835   -0.001604239   -0.003391753
      5        8          -0.003490872    0.000438307    0.002622287
      6        6           0.002734979    0.004805249    0.008761172
      7        6          -0.002064908   -0.007302297   -0.009781238
      8        6           0.009019080    0.000651562    0.002679552
      9        6          -0.012378859   -0.003876798   -0.003316738
     10        8           0.004355162    0.002728265   -0.001100474
     11        6           0.003627166   -0.007014383    0.002462954
     12        6           0.008166908   -0.002290662    0.001087733
     13        8          -0.002768762   -0.000074961    0.003003470
     14        6          -0.008516335   -0.002392662   -0.000495206
     15        6          -0.003218881   -0.005217708   -0.006207961
     16        8          -0.000287710    0.000400064    0.003547529
     17        1          -0.002111877    0.002064197   -0.004735015
     18        1          -0.004272859   -0.000482475    0.003210117
     19        1           0.003148440   -0.001141389    0.005092281
     20        1           0.005096385    0.000175777   -0.003458156
     21        1           0.004321269   -0.001663538   -0.003225426
     22        1           0.002710886    0.000477772    0.004975925
     23        1           0.004052808    0.004116911   -0.000829193
     24        1          -0.003063448    0.002415209    0.004296804
     25        1           0.002917115    0.004701791   -0.001476748
     26        1          -0.004506113    0.002597884    0.002919248
     27        1          -0.002246298    0.003121703   -0.004290934
     28        1          -0.004464561   -0.003354011    0.001055242
     29        1           0.002004386    0.000808630   -0.005028355
     30        1          -0.005138338   -0.001926015   -0.000966144
     31        1           0.005380551    0.002463893    0.001244588
     32        1          -0.002594903    0.000040174    0.005295659
     33        8          -0.001806345    0.002732205    0.004971362
     34        1           0.000827243   -0.001674213   -0.001723450
     35        1           0.000522356    0.001148535   -0.001558876
     36        1          -0.000537905    0.000501338    0.001794496
     37        1           0.002034351    0.000767066   -0.001485899
     38        8           0.000861477   -0.002873858    0.000346762
     39        1          -0.001275478    0.000500449   -0.000527836
     40        6          -0.000950659    0.004194792   -0.000085447
     41        8          -0.001233134   -0.000776264   -0.001195871
     42        8          -0.002005331   -0.002365148   -0.001478648
     43        6           0.002009326    0.009826267    0.000887924
     44        8          -0.000510246   -0.001027758   -0.000103373
     45        6           0.004386773    0.007199609    0.002245740
     46        6           0.000782047   -0.004357272    0.000759233
     47        6           0.000742565    0.003189563    0.000595420
     48        6          -0.002042203   -0.005748142   -0.002604514
     49        1          -0.004947701   -0.003354281   -0.003309434
     50        6           0.002187544   -0.002461605    0.000249413
     51        1           0.005086211   -0.003119848    0.002130377
     52        8          -0.001044153   -0.000656012   -0.001016635
     53        8          -0.001017436    0.002701459   -0.000814992
     54        1          -0.000252615   -0.001429600   -0.000212825
 -------------------------------------------------------------------
 Cartesian Forces:  Max     0.012378859 RMS     0.003544691

 GradGradGradGradGradGradGradGradGradGradGradGradGradGradGradGradGradGrad
 Berny optimization.
 FormGI is forming the generalized inverse of G from B-inverse, IUseBI=4.
 Internal  Forces:  Max     0.051127914 RMS     0.005211661
 Search for a local minimum.
 Step number   1 out of a maximum of  261
 All quantities printed in internal units (Hartrees-Bohrs-Radians)
 Mixed Optimization -- RFO/linear search
 Second derivative matrix not updated -- first step.
 ITU=  0
     Eigenvalues ---    0.00114   0.00207   0.00277   0.00305   0.00340
     Eigenvalues ---    0.00350   0.00380   0.00433   0.00483   0.00517
     Eigenvalues ---    0.00567   0.00626   0.00704   0.00797   0.00979
     Eigenvalues ---    0.01092   0.01153   0.01251   0.01445   0.01486
     Eigenvalues ---    0.01574   0.01811   0.01860   0.01881   0.02014
     Eigenvalues ---    0.02447   0.02635   0.02832   0.03485   0.03851
     Eigenvalues ---    0.04276   0.04347   0.04440   0.04589   0.04631
     Eigenvalues ---    0.04672   0.04775   0.04835   0.04919   0.05023
     Eigenvalues ---    0.05141   0.05517   0.05538   0.05907   0.06102
     Eigenvalues ---    0.06465   0.06638   0.06829   0.07050   0.07481
     Eigenvalues ---    0.07938   0.08380   0.08949   0.09273   0.09380
     Eigenvalues ---    0.09450   0.09714   0.09799   0.09911   0.10113
     Eigenvalues ---    0.10251   0.10568   0.10587   0.11488   0.11899
     Eigenvalues ---    0.12094   0.12238   0.12683   0.13222   0.14306
     Eigenvalues ---    0.14876   0.14916   0.15038   0.15160   0.15205
     Eigenvalues ---    0.15435   0.15887   0.16794   0.17148   0.17289
     Eigenvalues ---    0.17573   0.18164   0.18614   0.19559   0.20035
     Eigenvalues ---    0.21413   0.21944   0.22366   0.22956   0.23053
     Eigenvalues ---    0.24284   0.24546   0.25570   0.25935   0.26521
     Eigenvalues ---    0.26659   0.27014   0.27455   0.27640   0.29350
     Eigenvalues ---    0.29763   0.29799   0.30481   0.31943   0.32050
     Eigenvalues ---    0.32208   0.32285   0.32504   0.32565   0.32716
     Eigenvalues ---    0.32802   0.33094   0.33262   0.33493   0.33774
     Eigenvalues ---    0.33932   0.34418   0.34447   0.34592   0.34860
     Eigenvalues ---    0.35208   0.35757   0.36387   0.37551   0.37723
     Eigenvalues ---    0.38450   0.38847   0.39405   0.40152   0.40673
     Eigenvalues ---    0.41197   0.41650   0.42520   0.43594   0.44541
     Eigenvalues ---    0.46352   0.47730   0.48656   0.50050   0.50462
     Eigenvalues ---    0.52474   0.52695   0.53073   0.53772   0.53838
     Eigenvalues ---    0.57025   0.58131   0.58350   0.64253   0.94216
     Eigenvalues ---    0.95033   0.95983   1.45324   1.69537   5.71462
     Eigenvalues ---   25.04196
 RFO step:  Lambda=-4.88257511D-03 EMin= 1.13688725D-03
 Linear search not attempted -- first point.
 Iteration  1 RMS(Cart)=  0.05858798 RMS(Int)=  0.00045013
 Iteration  2 RMS(Cart)=  0.00103086 RMS(Int)=  0.00003404
 Iteration  3 RMS(Cart)=  0.00000041 RMS(Int)=  0.00003404
 Variable       Old X    -DE/DX   Delta X   Delta X   Delta X     New X
                                 (Linear)    (Quad)   (Total)
    R1        3.37594   0.00832   0.00000   0.02549   0.02549   3.40143
    R2        2.63452   0.00211   0.00000   0.00725   0.00725   2.64177
    R3        3.50818   0.00568   0.00000   0.02676   0.02676   3.53494
    R4        3.57952   0.00746   0.00000   0.01005   0.01005   3.58956
    R5        7.01422   0.00579   0.00000   0.11656   0.11656   7.13078
    R6        2.64241   0.00471   0.00000   0.01046   0.01046   2.65287
    R7        6.93308   0.00192   0.00000   0.04892   0.04892   6.98201
    R8        2.63585   0.00428   0.00000   0.00791   0.00791   2.64376
    R9        2.63561   0.00397   0.00000   0.01040   0.01040   2.64601
   R10        2.87988  -0.00045   0.00000  -0.00501  -0.00501   2.87487
   R11        2.09210  -0.00545   0.00000  -0.01727  -0.01727   2.07482
   R12        2.09501  -0.00557   0.00000  -0.01793  -0.01793   2.07708
   R13        2.08892  -0.00598   0.00000  -0.01882  -0.01882   2.07010
   R14        2.07963  -0.00578   0.00000  -0.01686  -0.01686   2.06277
   R15        2.66177   0.00500   0.00000   0.01681   0.01681   2.67858
   R16        2.88071  -0.00156   0.00000  -0.00579  -0.00579   2.87492
   R17        2.08992  -0.00558   0.00000  -0.01704  -0.01704   2.07288
   R18        2.09061  -0.00535   0.00000  -0.01691  -0.01691   2.07369
   R19        2.65912   0.00490   0.00000   0.01651   0.01651   2.67562
   R20        2.08886  -0.00594   0.00000  -0.01938  -0.01938   2.06948
   R21        2.08037  -0.00610   0.00000  -0.01707  -0.01707   2.06330
   R22        1.82309  -0.00159   0.00000  -0.00336  -0.00336   1.81973
   R23        2.87497  -0.00124   0.00000  -0.00839  -0.00839   2.86658
   R24        2.09190  -0.00572   0.00000  -0.01741  -0.01741   2.07449
   R25        2.08229  -0.00592   0.00000  -0.01605  -0.01605   2.06624
   R26        2.70892   0.00138   0.00000   0.01032   0.01032   2.71924
   R27        2.07431  -0.00574   0.00000  -0.01629  -0.01629   2.05802
   R28        2.07658  -0.00564   0.00000  -0.01641  -0.01641   2.06018
   R29        1.82876  -0.00248   0.00000  -0.00514  -0.00514   1.82362
   R30        2.87541  -0.00092   0.00000  -0.00860  -0.00860   2.86681
   R31        2.09225  -0.00562   0.00000  -0.01745  -0.01745   2.07480
   R32        2.08489  -0.00567   0.00000  -0.01664  -0.01664   2.06825
   R33        2.70035   0.00156   0.00000   0.01246   0.01246   2.71281
   R34        2.07780  -0.00582   0.00000  -0.01712  -0.01712   2.06068
   R35        2.07826  -0.00575   0.00000  -0.01697  -0.01697   2.06128
   R36        1.83987  -0.00232   0.00000  -0.00594  -0.00594   1.83393
   R37        1.82379  -0.00180   0.00000  -0.00383  -0.00383   1.81996
   R38        1.83661  -0.00145   0.00000  -0.00309  -0.00309   1.83353
   R39        2.50304   0.00241   0.00000   0.00583   0.00583   2.50887
   R40        2.27211  -0.00178   0.00000  -0.00225  -0.00225   2.26986
   R41        2.82725  -0.00304   0.00000  -0.00789  -0.00789   2.81937
   R42        2.54608  -0.00013   0.00000   0.00384   0.00384   2.54992
   R43        2.59899  -0.00231   0.00000  -0.00763  -0.00763   2.59136
   R44        2.54572  -0.00981   0.00000  -0.01673  -0.01673   2.52899
   R45        2.26714   0.00101   0.00000   0.00320   0.00320   2.27034
   R46        2.76212  -0.00483   0.00000  -0.01293  -0.01293   2.74919
   R47        2.71543  -0.00953   0.00000  -0.00898  -0.00898   2.70645
   R48        2.05300  -0.01266   0.00000  -0.01644  -0.01644   2.03656
   R49        2.56115  -0.00905   0.00000  -0.01560  -0.01560   2.54555
   R50        2.05784  -0.00633   0.00000  -0.01681  -0.01681   2.04103
   R51        2.83839   0.00055   0.00000  -0.00595  -0.00595   2.83245
   R52        2.27015   0.00487   0.00000  -0.00201  -0.00201   2.26814
   R53        2.50783   0.00190   0.00000   0.00471   0.00471   2.51254
   R54        1.83505  -0.00146   0.00000  -0.00297  -0.00297   1.83208
    A1        2.45690   0.00097   0.00000   0.00495   0.00495   2.46185
    A2        1.82354  -0.00272   0.00000  -0.00709  -0.00723   1.81631
    A3        1.73426   0.00254   0.00000  -0.00195  -0.00179   1.73248
    A4        1.19857  -0.00335   0.00000  -0.01504  -0.01485   1.18372
    A5        2.50141   0.00029   0.00000   0.01481   0.01474   2.51615
    A6        1.21690   0.00110   0.00000  -0.02089  -0.02091   1.19599
    A7        2.55183  -0.00119   0.00000   0.00976   0.00956   2.56138
    A8        2.00273   0.00014   0.00000  -0.02984  -0.02984   1.97289
    A9        2.15341   0.00612   0.00000  -0.00257  -0.00257   2.15084
   A10        2.15992   0.00829   0.00000   0.01698   0.01698   2.17690
   A11        1.94214  -0.00014   0.00000  -0.00897  -0.00899   1.93315
   A12        1.91663  -0.00068   0.00000  -0.00602  -0.00605   1.91058
   A13        1.94599   0.00048   0.00000   0.00027   0.00029   1.94628
   A14        1.90431  -0.00056   0.00000   0.00098   0.00092   1.90523
   A15        1.89087   0.00085   0.00000   0.00748   0.00747   1.89834
   A16        1.86169   0.00005   0.00000   0.00712   0.00709   1.86878
   A17        1.91004   0.00015   0.00000   0.00216   0.00211   1.91215
   A18        1.89057   0.00113   0.00000   0.01264   0.01262   1.90318
   A19        1.95505   0.00043   0.00000  -0.00198  -0.00198   1.95307
   A20        1.88104  -0.00007   0.00000   0.00603   0.00594   1.88698
   A21        1.95480  -0.00117   0.00000  -0.01133  -0.01135   1.94346
   A22        1.86939  -0.00042   0.00000  -0.00649  -0.00649   1.86290
   A23        1.93185  -0.00120   0.00000  -0.01404  -0.01405   1.91779
   A24        1.92863   0.00040   0.00000   0.00007   0.00006   1.92869
   A25        1.91697  -0.00003   0.00000  -0.00221  -0.00219   1.91477
   A26        1.90493   0.00044   0.00000   0.00289   0.00285   1.90777
   A27        1.90477   0.00049   0.00000   0.00749   0.00745   1.91222
   A28        1.87567  -0.00006   0.00000   0.00657   0.00653   1.88220
   A29        1.94249   0.00030   0.00000   0.00072   0.00073   1.94322
   A30        1.89992   0.00078   0.00000   0.00841   0.00839   1.90831
   A31        1.91487  -0.00004   0.00000   0.00061   0.00059   1.91545
   A32        1.95912  -0.00111   0.00000  -0.01277  -0.01276   1.94635
   A33        1.87215  -0.00028   0.00000  -0.00785  -0.00786   1.86429
   A34        1.87368   0.00035   0.00000   0.01119   0.01112   1.88480
   A35        1.88863   0.00202   0.00000   0.00738   0.00738   1.89600
   A36        1.85951   0.00522   0.00000   0.00491   0.00491   1.86443
   A37        1.92710  -0.00118   0.00000  -0.00146  -0.00147   1.92563
   A38        1.93911  -0.00228   0.00000  -0.00619  -0.00619   1.93293
   A39        1.91824  -0.00075   0.00000   0.00112   0.00112   1.91936
   A40        1.93849  -0.00190   0.00000  -0.00371  -0.00371   1.93478
   A41        1.88190   0.00083   0.00000   0.00521   0.00521   1.88711
   A42        1.85237   0.00232   0.00000  -0.00057  -0.00057   1.85180
   A43        1.98717  -0.00072   0.00000  -0.00125  -0.00126   1.98591
   A44        1.92737  -0.00039   0.00000   0.00174   0.00173   1.92910
   A45        1.93384  -0.00128   0.00000  -0.00457  -0.00458   1.92926
   A46        1.85343  -0.00050   0.00000  -0.00446  -0.00446   1.84897
   A47        1.90469   0.00058   0.00000   0.00850   0.00849   1.91318
   A48        1.96034  -0.00140   0.00000  -0.00750  -0.00750   1.95284
   A49        1.88421   0.00536   0.00000   0.00108   0.00108   1.88528
   A50        1.92338  -0.00138   0.00000  -0.00304  -0.00304   1.92034
   A51        1.93405  -0.00228   0.00000  -0.00436  -0.00436   1.92968
   A52        1.91233  -0.00046   0.00000   0.00220   0.00220   1.91453
   A53        1.93347  -0.00209   0.00000  -0.00198  -0.00199   1.93148
   A54        1.87669   0.00077   0.00000   0.00608   0.00608   1.88277
   A55        1.87940   0.00288   0.00000  -0.00192  -0.00192   1.87748
   A56        1.97115  -0.00079   0.00000   0.00106   0.00104   1.97219
   A57        1.92345  -0.00029   0.00000   0.00351   0.00349   1.92694
   A58        1.93664  -0.00152   0.00000  -0.00539  -0.00539   1.93125
   A59        1.84485  -0.00079   0.00000  -0.00703  -0.00703   1.83782
   A60        1.90416   0.00052   0.00000   0.00908   0.00905   1.91321
   A61        1.91360  -0.00096   0.00000  -0.00173  -0.00173   1.91188
   A62        1.89133   0.00148   0.00000   0.00451   0.00451   1.89584
   A63        1.89174   0.00045   0.00000   0.00145   0.00145   1.89319
   A64        2.17753   0.00007   0.00000  -0.00054  -0.00054   2.17699
   A65        1.96751  -0.00033   0.00000  -0.00105  -0.00105   1.96646
   A66        2.13814   0.00026   0.00000   0.00159   0.00159   2.13973
   A67        2.14680  -0.00365   0.00000  -0.01179  -0.01183   2.13497
   A68        2.00893  -0.00081   0.00000  -0.00602  -0.00600   2.00293
   A69        2.12773   0.00210   0.00000   0.00386   0.00387   2.13160
   A70        2.14647  -0.00130   0.00000   0.00213   0.00211   2.14858
   A71        2.06471  -0.00143   0.00000  -0.00446  -0.00446   2.06026
   A72        2.01253   0.00165   0.00000   0.00956   0.00954   2.02207
   A73        2.20592  -0.00022   0.00000  -0.00508  -0.00508   2.20085
   A74        2.05094   0.00380   0.00000   0.00230   0.00225   2.05320
   A75        2.10961   0.00787   0.00000  -0.00029  -0.00029   2.10932
   A76        2.12141  -0.01196   0.00000  -0.00155  -0.00155   2.11986
   A77        2.11123  -0.00099   0.00000  -0.00329  -0.00332   2.10792
   A78        2.03543   0.00025   0.00000  -0.00153  -0.00152   2.03391
   A79        2.13652   0.00074   0.00000   0.00483   0.00484   2.14135
   A80        2.09773   0.00054   0.00000   0.00176   0.00174   2.09946
   A81        2.05619  -0.00153   0.00000   0.00046   0.00047   2.05667
   A82        2.12902   0.00099   0.00000  -0.00226  -0.00224   2.12678
   A83        1.28902  -0.03884   0.00000   0.01563   0.01563   1.30466
   A84        2.14494   0.00738   0.00000   0.00043   0.00043   2.14537
   A85        1.96283  -0.00326   0.00000   0.00173   0.00173   1.96457
   A86        2.17476  -0.00441   0.00000  -0.00230  -0.00231   2.17246
   A87        1.52521   0.05113   0.00000   0.00889   0.00889   1.53410
   A88        1.89462   0.00031   0.00000   0.00105   0.00105   1.89567
    D1       -1.14087   0.00069   0.00000  -0.00913  -0.00912  -1.14999
    D2        1.51021   0.00098   0.00000   0.00294   0.00288   1.51309
    D3       -2.20522  -0.00051   0.00000   0.01923   0.01928  -2.18594
    D4       -2.46810  -0.00036   0.00000   0.01381   0.01381  -2.45428
    D5       -0.35576  -0.00033   0.00000   0.00817   0.00819  -0.34757
    D6        1.71063  -0.00018   0.00000   0.01493   0.01490   1.72554
    D7        1.93806   0.00041   0.00000  -0.02034  -0.02036   1.91770
    D8       -0.31189  -0.00030   0.00000  -0.02330  -0.02332  -0.33521
    D9        2.99003  -0.00142   0.00000  -0.04466  -0.04460   2.94543
   D10       -0.17378   0.00050   0.00000  -0.00783  -0.00784  -0.18162
   D11        2.09900  -0.00014   0.00000  -0.00678  -0.00683   2.09216
   D12       -1.31522   0.00218   0.00000   0.02823   0.02828  -1.28693
   D13       -2.51158   0.00047   0.00000   0.02375   0.02394  -2.48764
   D14        1.75584   0.00248   0.00000   0.01078   0.01061   1.76645
   D15       -1.21344   0.00090   0.00000  -0.01313  -0.01314  -1.22658
   D16        0.85636  -0.00155   0.00000   0.01853   0.01853   0.87490
   D17        2.94432   0.00034   0.00000   0.02009   0.02009   2.96441
   D18       -1.26382  -0.00102   0.00000   0.02296   0.02296  -1.24087
   D19        0.48035  -0.00771   0.00000   0.01908   0.01908   0.49943
   D20       -0.79756  -0.00080   0.00000   0.01481   0.01481  -0.78275
   D21        1.28480   0.00075   0.00000   0.01827   0.01827   1.30307
   D22       -2.91119  -0.00045   0.00000   0.01983   0.01983  -2.89136
   D23        1.42504   0.00193   0.00000   0.02820   0.02818   1.45322
   D24       -2.74782   0.00067   0.00000   0.01954   0.01957  -2.72825
   D25       -0.68824   0.00060   0.00000   0.02469   0.02468  -0.66356
   D26        1.06694  -0.00054   0.00000  -0.01106  -0.01103   1.05591
   D27       -0.97946  -0.00119   0.00000  -0.02665  -0.02666  -1.00612
   D28       -3.03745  -0.00164   0.00000  -0.02551  -0.02550  -3.06296
   D29       -1.05059   0.00077   0.00000   0.00158   0.00161  -1.04899
   D30       -3.09700   0.00013   0.00000  -0.01401  -0.01403  -3.11102
   D31        1.12820  -0.00033   0.00000  -0.01287  -0.01287   1.11533
   D32       -3.07099   0.00054   0.00000  -0.01146  -0.01145  -3.08244
   D33        1.16579  -0.00010   0.00000  -0.02705  -0.02708   1.13871
   D34       -0.89220  -0.00055   0.00000  -0.02591  -0.02593  -0.91813
   D35       -1.07179   0.00039   0.00000  -0.01667  -0.01669  -1.08848
   D36        1.08201   0.00003   0.00000  -0.02382  -0.02382   1.05819
   D37        3.14082  -0.00097   0.00000  -0.02689  -0.02688   3.11395
   D38       -3.13525   0.00040   0.00000   0.00574   0.00576  -3.12950
   D39       -0.96697  -0.00026   0.00000  -0.00406  -0.00406  -0.97103
   D40        1.07867   0.00059   0.00000   0.01464   0.01466   1.09334
   D41        1.02161   0.00038   0.00000   0.01278   0.01279   1.03441
   D42       -3.09328  -0.00028   0.00000   0.00298   0.00297  -3.09031
   D43       -1.04764   0.00057   0.00000   0.02167   0.02170  -1.02595
   D44       -1.02356  -0.00008   0.00000  -0.00101  -0.00103  -1.02459
   D45        1.14473  -0.00074   0.00000  -0.01081  -0.01085   1.13388
   D46       -3.09281   0.00011   0.00000   0.00788   0.00787  -3.08494
   D47        1.16134   0.00019   0.00000   0.00871   0.00871   1.17005
   D48       -0.97311  -0.00024   0.00000   0.00646   0.00647  -0.96664
   D49       -3.02712   0.00013   0.00000   0.00494   0.00493  -3.02219
   D50        0.73240   0.00129   0.00000   0.01034   0.01034   0.74274
   D51        2.86432   0.00088   0.00000   0.00341   0.00341   2.86773
   D52       -1.26915   0.00081   0.00000   0.01504   0.01504  -1.25411
   D53       -1.35572   0.00005   0.00000   0.00859   0.00859  -1.34714
   D54        0.77620  -0.00036   0.00000   0.00167   0.00166   0.77786
   D55        2.92591  -0.00043   0.00000   0.01329   0.01329   2.93920
   D56        2.84643   0.00070   0.00000   0.00374   0.00374   2.85017
   D57       -1.30483   0.00028   0.00000  -0.00319  -0.00319  -1.30802
[...]
 00000578,0.00000184,-0.00000036,0.00000029,-0.00000025,0.00000147,-0.0
 0000236,0.00000050,-0.00000337,0.00001089,0.00000534,0.00000534,0.0000
 0784,-0.00004027,0.00000093,-0.00000122,-0.00000111,-0.00000096,-0.000
 00131,0.00000057,-0.00000167,-0.00000137,-0.00000811,-0.00003841,-0.00
 000025,0.00010270,0.00000357,0.00001077,0.00000476,0.00046372,0.000145
 52,-0.00142977,0.00002203,0.00002488,0.00022639,-0.00054862,-0.0010572
 3,0.00318019,0.00019382,-0.00030884,-0.00037118,0.00057027,0.00012242,
 -0.00098433,0.00136394,-0.00144729,0.00301968,-0.00413688,-0.00197091,
 0.00767121,-0.09208222,0.04426708,-0.07533804,-0.00900796,0.00546283,0
 .00142508,-0.00027337,0.00032475,0.00011374,0.00165904,0.00028249,-0.0
 0574820,0.10104787,-0.04631391,0.06723626,-0.00001920,0.00017758,-0.00
 088343,-0.00212183,-0.00042264,-0.00033852,0.00143601,-0.00028500,0.00
 227146,0.00017047,0.00034028,-0.00064104,-0.00003248,0.00011733,0.0002
 3442,0.00000186,-0.00007721,-0.00007347,0.00000960,-0.00002407,-0.0000
 0511,0.00001609,-0.00000147,0.00005648,0.00001250,-0.00000559,0.000009
 09,0.00001056,0.00000295,-0.00000623,0.00009685,-0.00000097,0.00000631
 ,-0.00004966,0.00000077,0.00002693,0.00010087,-0.00004099,0.00005464,-
 0.00023864,-0.00012458,-0.00055848,-0.00008176,0.00020638,-0.00017229,
 0.00017253,-0.00008362,0.00034536,0.00000201,0.00000929,0.00000229,0.0
 0000960,0.00003537,0.00007668,-0.00001046,0.00001205,0.00000707,-0.000
 00007,-0.00000464,-0.00000941,0.00004466,-0.00002439,0.00025957,0.0004
 3265,0.00019081,0.00016182,-0.00002273,-0.00003619,0.00004427,-0.00003
 923,0.00005322,-0.00006373,-0.00001024,0.00003325,-0.00002494,0.000003
 84,-0.00001713,0.00000480,0.00001095,-0.00000429,-0.00000759,0.0000105
 1,0.00000477,0.00000665,-0.00000473,0.00001232,0.00002065,0.00001415,0
 .00002139,0.00001422,0.00000661,0.00000279,-0.00000458,-0.00000822,-0.
 00000540,-0.00000385,0.00000168,0.00003520,0.00002169,0.00002959,0.000
 02893,-0.00008555,-0.00000033,-0.00000250,-0.00000489,-0.00000104,0.00
 000473,0.00000893,-0.00000526,0.00000127,-0.00001214,0.00019286,-0.000
 16746,0.00006927,-0.00001526,-0.00000316,0.00000008,-0.00062091,-0.000
 11283,-0.00030685,0.00035112,0.00013980,0.00014277,0.00191198,0.000300
 56,0.00089052,0.00088577,-0.00151433,0.00034861,-0.00066823,-0.0021319
 5,-0.00055946,-0.00118630,0.00340727,0.00035964,-0.00353117,0.00279893
 ,-0.00160273,0.00333473,-0.00334265,0.00070777,-0.00785558,-0.02325409
 ,-0.00817826,0.00175019,-0.00004949,0.00077979,-0.50746511,-0.29538801
 ,-0.11026818,0.00063272,0.00048230,0.00037195,0.62095213,0.00018390,0.
 00029021,-0.00155610,-0.00091795,-0.00192864,-0.00118355,0.00080383,0.
 00077477,0.00138879,0.00036050,0.00018303,0.00058381,-0.00014384,0.000
 21564,0.00038800,0.00000642,-0.00014165,-0.00010647,0.00000927,-0.0000
 2837,0.00003813,0.00003249,0.00001035,0.00003890,0.00004692,-0.0000115
 9,0.00003963,-0.00001785,0.00000540,-0.00002487,-0.00022470,0.00028824
 ,-0.00014060,-0.00003766,-0.00008940,0.00001957,0.00006912,0.00003363,
 0.00016997,-0.00048062,-0.00013153,-0.00054060,0.00010889,0.00000772,-
 0.00052938,0.00006829,0.00005707,0.00051597,-0.00001455,0.00000079,-0.
 00001555,0.00003298,0.00002851,0.00007853,-0.00000601,0.00002690,-0.00
 000512,-0.00000042,-0.00000732,-0.00000719,0.00002465,-0.00001504,0.00
 032717,0.00045250,-0.00006261,0.00025076,-0.00009517,0.00001894,0.0001
 0866,-0.00010151,0.00021217,-0.00016954,0.00000835,-0.00003961,0.00002
 881,-0.00000248,-0.00005062,-0.00003481,0.00001710,0.00001558,0.000043
 85,0.00001488,0.00001543,0.00000532,-0.00000633,0.00003099,0.00002440,
 0.00001591,0.00003028,0.00001929,-0.00000118,0.00000102,-0.00000381,0.
 00000218,0.00000182,-0.00000419,-0.00001023,0.00005010,-0.00000261,0.0
 0006364,0.00000540,-0.00009664,0.00000367,-0.00000537,-0.00000224,0.00
 000803,0.00000155,0.00001353,0.00000221,-0.00000296,-0.00003378,0.0007
 0163,-0.00151648,0.00029097,-0.00009665,0.00010013,-0.00004090,-0.0030
 4462,0.00219852,-0.00105960,0.00186494,-0.00051428,0.00065747,-0.00047
 478,-0.00248056,-0.00032724,0.00080530,0.00072111,0.00028129,-0.002934
 57,-0.00555040,-0.00137210,0.00004694,0.00754878,-0.00036446,-0.002033
 14,-0.00068660,-0.00066377,0.00645148,-0.01230248,0.00149042,-0.046416
 26,-0.03201640,-0.01243998,-0.00063843,-0.00099779,-0.00037155,-0.2792
 9105,-0.32142676,-0.07042891,-0.00010760,0.00013904,0.00052355,0.33728
 256,0.32677620,-0.00044863,-0.00119827,-0.00421878,0.00000846,-0.00072
 631,0.00433583,0.00278499,0.00178475,-0.00217263,-0.00073508,0.0011082
 1,-0.00119059,0.00049051,-0.00022741,-0.00087484,-0.00000678,0.0002767
 4,0.00021456,-0.00007218,0.00005970,0.00000685,0.00081490,0.00055736,0
 .00015671,-0.00005938,0.00015029,0.00001114,-0.00009637,-0.00020200,-0
 .00004918,0.00048173,-0.00046180,0.00021557,0.00006426,0.00009162,-0.0
 0006567,-0.00015758,0.00007894,-0.00030398,-0.00086364,-0.00101996,-0.
 00114110,0.00019945,0.00002149,-0.00005864,0.00014126,0.00028431,-0.00
 007553,-0.00013960,-0.00007617,-0.00008766,-0.00012817,-0.00004250,0.0
 0011465,0.00000258,-0.00000284,0.00000716,0.00000115,0.00001101,0.0000
 0266,0.00043956,0.00033352,-0.00008386,0.00019359,0.00010937,0.0000905
 5,-0.00001238,0.00012299,-0.00004731,-0.00005147,-0.00001710,0.0000089
 4,-0.00003933,0.00012898,-0.00011589,-0.00008057,0.00005652,-0.0000186
 2,-0.00002849,-0.00001355,-0.00006842,-0.00000762,-0.00001564,0.000013
 00,0.00003837,-0.00005041,-0.00006995,-0.00001061,-0.00004058,0.000009
 64,0.00002405,-0.00000007,-0.00000982,-0.00003099,0.00002815,-0.000017
 90,0.00005553,-0.00011522,-0.00005855,-0.00001537,-0.00007418,0.000096
 63,-0.00001407,0.00001116,0.00001005,0.00001738,0.00002885,-0.00000992
 ,-0.00002577,-0.00000054,0.00005550,0.00002517,0.00009081,-0.00000470,
 0.00000886,-0.00001011,-0.00000706,-0.00009599,-0.00028113,0.00021248,
 -0.00000805,0.00012520,0.00000088,0.00078282,0.00012663,0.00050924,0.0
 0030888,-0.00047902,-0.00015329,-0.00031475,-0.00048064,0.00058018,0.0
 0086835,0.00127126,-0.00288686,-0.00083498,0.00042212,-0.00133557,0.00
 067106,-0.00037295,0.00019440,-0.00865598,-0.00720393,0.02009473,0.000
 85611,-0.00041120,-0.00008106,-0.11354833,-0.07678831,-0.10343240,-0.0
 0024966,0.00000304,0.00108544,0.15080935,0.08727897,0.07665221,0.00005
 829,-0.00011901,-0.00066529,-0.00109672,-0.00002084,0.00088520,0.00124
 580,-0.00053068,0.00105482,0.00000048,0.00024431,-0.00085017,0.0001499
 3,-0.00003773,-0.00015780,-0.00000996,0.00005882,0.00003994,-0.0000214
 4,-0.00000239,-0.00002494,0.00012856,0.00010223,0.00004937,-0.00000937
 ,0.00004020,-0.00000146,-0.00000743,-0.00005016,-0.00001375,0.00016533
 ,-0.00020030,0.00009153,-0.00002578,0.00004982,0.00000796,0.00003278,-
 0.00002871,-0.00006969,0.00015626,-0.00002918,-0.00049822,-0.00004543,
 0.00031803,0.00020749,0.00017408,-0.00012886,0.00005914,-0.00002030,-0
 .00001570,-0.00001887,0.00000137,0.00000617,0.00003053,-0.00000744,0.0
 0000244,0.00000835,0.00000093,-0.00000258,-0.00000899,0.00009367,0.000
 08390,-0.00002979,0.00015540,0.00041537,-0.00014857,0.00002561,-0.0000
 1921,-0.00003782,0.00004517,-0.00009241,0.00006169,-0.00000603,0.00004
 760,-0.00003452,-0.00000123,0.00001105,0.00001773,-0.00000172,-0.00000
 906,-0.00003207,0.00000523,-0.00000175,0.00000694,0.00000972,-0.000012
 39,-0.00001018,0.00000438,-0.00000524,0.00000907,0.00001672,0.00000567
 ,-0.00000834,-0.00002119,0.00000022,-0.00000791,0.00002582,-0.00001501
 ,0.00001156,-0.00001674,-0.00000173,-0.00001144,-0.00000710,0.00000324
 ,-0.00000266,0.00000095,0.00001369,0.00000414,-0.00001214,-0.00000077,
 0.00001473,-0.00031202,0.00074954,-0.00014323,0.00004726,-0.00004136,0
 .00001820,0.00129933,-0.00095773,0.00054230,-0.00072570,0.00027519,-0.
 00026555,0.00064147,0.00059941,0.00025836,-0.00091744,0.00017989,-0.00
 032175,0.00120581,0.00186723,0.00054454,-0.00048129,-0.00310764,-0.000
 04736,0.00163259,0.00067041,0.00028997,-0.00272438,0.00140442,-0.00084
 799,-0.00581241,0.01235218,-0.00430398,0.00064115,-0.00075110,0.000388
 74,-0.24769169,0.06274126,-0.04716698,0.00091169,-0.00030255,0.0000552
 6,-0.11154632,-0.00645503,-0.03505279,0.40722917,0.00016070,0.00046226
 ,0.00022631,-0.00009143,-0.00067457,-0.00111477,-0.00001581,0.00050985
 ,0.00090103,0.00011054,-0.00000074,0.00067237,-0.00018563,0.00016365,0
 .00035097,0.00001435,-0.00012780,-0.00009881,0.00002432,-0.00001895,0.
 00003137,-0.00014950,-0.00011333,-0.00003249,0.00003157,-0.00004447,0.
 00001687,0.00000561,0.00005291,0.00000264,-0.00014040,0.00024437,-0.00
 014078,-0.00002091,-0.00005854,0.00000363,0.00003757,0.00001535,0.0001
 4619,0.00015567,-0.00002942,-0.00021949,0.00013689,-0.00006718,-0.0003
 5421,-0.00001507,0.00000612,0.00037727,0.00002240,0.00001753,0.0000139
 5,0.00002565,0.00001349,-0.00000658,-0.00000001,0.00000753,-0.00001380
 ,-0.00000158,-0.00000235,0.00000166,-0.00003018,0.00001843,0.00016632,
 0.00022299,-0.00013542,-0.00016649,-0.00007339,0.00000868,0.00008405,-
 0.00007366,0.00017148,-0.00012846,-0.00000220,-0.00003273,0.00002185,-
 0.00000683,-0.00003616,-0.00002789,0.00001100,0.00000775,0.00003587,0.
 00000501,0.00000851,-0.00000198,-0.00001326,0.00002478,0.00002479,0.00
 000604,0.00002256,0.00000289,-0.00001271,-0.00000289,0.00000439,0.0000
 1647,-0.00000173,0.00000438,-0.00002639,0.00004510,-0.00000136,0.00005
 564,0.00000718,-0.00006115,0.00000747,-0.00000574,-0.00000040,0.000001
 40,-0.00001118,0.00000432,0.00000681,-0.00000148,-0.00002940,0.0008309
 2,-0.00160022,0.00034497,-0.00009844,0.00004623,-0.00003886,-0.0031160
 3,0.00149315,-0.00125419,0.00166394,-0.00037410,0.00062115,-0.00024897
 ,-0.00142700,-0.00020890,0.00371735,-0.00116365,0.00168064,-0.00253972
 ,-0.00369383,-0.00136753,0.00253661,0.00686096,0.00186379,-0.00387460,
 -0.00725603,-0.00211245,0.00207020,-0.00833318,-0.00001173,0.04163853,
 -0.02771912,0.01030299,-0.00013201,0.00034584,-0.00021646,0.07970211,-
 0.16756091,0.01761554,0.00108350,-0.00308566,0.00003486,-0.00905665,0.
 03863828,-0.00217518,-0.05046697,0.66640982,-0.00041297,-0.00082362,-0
 .00011561,0.00194758,0.00042689,0.00217285,-0.00137447,0.00221917,-0.0
 0588122,-0.00051264,0.00042940,0.00002778,0.00027960,-0.00021591,-0.00
 061058,-0.00000356,0.00019668,0.00016017,-0.00004702,0.00004457,0.0000
 0196,0.00026460,0.00019758,0.00003877,-0.00002060,0.00007382,0.0000089
 1,-0.00004784,-0.00009192,-0.00002536,0.00010443,-0.00021709,0.0001323
 8,0.00005627,0.00003267,-0.00003828,-0.00014011,0.00007686,-0.00020962
 ,-0.00107779,-0.00096612,0.00013945,0.00007226,-0.00015492,0.00000821,
 -0.00001370,0.00031380,-0.00026834,-0.00004884,-0.00003206,-0.00003555
 ,-0.00004339,-0.00003079,0.00000760,0.00000031,-0.00000014,0.00000116,
 0.00000167,0.00000518,0.00000152,0.00014510,0.00007232,-0.00009878,-0.
 00005254,-0.00017709,0.00006822,0.00001045,0.00009161,-0.00005001,-0.0
 0001082,-0.00001926,0.00002779,0.00000067,0.00003229,-0.00003128,-0.00
 003404,0.00003065,-0.00001551,-0.00002098,0.00000051,-0.00002541,-0.00
 000800,-0.00000531,0.00000616,0.00002093,-0.00003477,-0.00005010,-0.00
 001545,-0.00003801,-0.00000608,0.00000957,-0.00000042,-0.00000238,-0.0
 0001134,0.00001687,-0.00000578,0.00003342,-0.00008361,-0.00004146,-0.0
 0003415,-0.00005408,0.00010181,-0.00000956,0.00000822,0.00000747,0.000
 00852,0.00001395,-0.00000362,-0.00000892,0.00000146,0.00003953,-0.0000
 6312,0.00015832,-0.00000902,0.00000604,-0.00000928,0.00001243,0.000286
 25,-0.00021786,-0.00001665,-0.00014231,0.00006675,-0.00002966,0.000102
 00,0.00007005,0.00025033,-0.00003946,0.00003834,-0.00024175,0.00013481
 ,0.00041358,0.00036767,0.00059087,-0.00050989,-0.00104089,-0.00016802,
 -0.00011723,0.00094651,-0.00071672,-0.00003263,-0.00045484,-0.00314807
 ,0.00180102,0.01042239,0.00016081,-0.00014984,0.00010100,-0.04414479,0
 .01278904,-0.07520434,0.00013572,-0.00052832,0.00062452,-0.03620003,-0
 .00175408,0.01845734,0.09488686,0.00796414,0.06706016,0.00004293,0.000
 08888,0.00006282,-0.00017425,-0.00003409,-0.00035126,-0.00009227,-0.00
 008820,0.00038100,0.00007192,-0.00007705,0.00003390,-0.00005282,0.0000
 3843,0.00009727,0.00000389,-0.00003381,-0.00002505,0.00001049,-0.00000
 205,0.00000620,-0.00003712,-0.00002830,-0.00001341,0.00000185,-0.00001
 126,-0.00000500,0.00000596,0.00001510,0.00000669,-0.00002345,0.0000367
 5,-0.00002198,-0.00000463,-0.00000541,0.00000336,0.00001458,-0.0000073
 0,0.00003262,0.00002591,-0.00002030,-0.00007618,-0.00002250,0.00004676
 ,-0.00000659,0.00001925,-0.00003988,0.00006610,0.00000613,0.00000380,0
 .00000638,0.00000267,0.00000367,-0.00000298,0.00000287,-0.00000137,0.0
 0000095,0.00000010,-0.00000060,0.00000261,-0.00001695,-0.00001391,0.00
 006517,0.00010885,0.00004954,-0.00007777,-0.00000361,-0.00001515,0.000
 00924,-0.00000284,0.00000903,-0.00000634,0.00000014,-0.00000706,0.0000
 0645,0.00000504,-0.00000321,0.00000163,0.00000267,0.00000018,0.0000048
 1,0.00000047,0.00000038,-0.00000146,-0.00000378,0.00000659,0.00000686,
 0.00000028,0.00000596,0.00000005,-0.00000580,-0.00000204,0.00000290,0.
 00000722,-0.00000121,0.00000140,-0.00000998,0.00001014,-0.00000103,0.0
 0000725,0.00000733,-0.00001944,0.00000285,-0.00000145,0.00000035,-0.00
 000170,-0.00000282,-0.00000154,0.00000290,0.00000019,-0.00000623,-0.00
 001719,-0.00000880,-0.00000864,0.00000090,0.00001398,-0.00000334,-0.00
 003183,0.00016323,0.00001725,0.00004257,-0.00002223,0.00001399,0.00013
 675,-0.00026855,0.00006088,-0.00040394,-0.00001319,-0.00012826,-0.0001
 1207,-0.00018601,-0.00004658,0.00030594,0.00038829,0.00005114,0.000395
 41,0.00119730,0.00008883,-0.00029620,-0.00089013,-0.00018093,-0.005053
 08,0.00139863,-0.00267877,-0.00003020,0.00000446,-0.00002095,-0.001226
 03,0.05390365,0.00057045,0.00038271,0.00018281,0.00035456,0.00292968,-
 0.00593594,0.00169625,-0.04458367,-0.06390891,-0.01068748,0.04766574,-
 0.00013430,-0.00029126,-0.00008984,0.00053921,0.00015307,0.00082022,-0
 .00017518,0.00042740,-0.00122645,-0.00017412,0.00016398,-0.00007781,0.
 00010386,-0.00008194,-0.00021496,-0.00000415,0.00007487,0.00005857,-0.
 00001300,0.00001656,-0.00000604,0.00009772,0.00007539,0.00001921,-0.00
 001771,0.00002926,-0.00001054,-0.00000727,-0.00003387,-0.00000274,0.00
 005181,-0.00008907,0.00004849,0.00001703,0.00001618,-0.00001174,-0.000
 04198,0.00001791,-0.00007365,-0.00028056,-0.00020118,0.00009836,0.0000
 2746,-0.00003530,0.00003000,-0.00001059,0.00007514,-0.00010788,-0.0000
 1629,-0.00001248,-0.00001148,-0.00001676,-0.00000940,0.00000384,0.0000
 0149,-0.00000270,0.00000818,0.00000120,0.00000134,0.00000038,0.0000511
 9,0.00002595,-0.00005673,-0.00008010,-0.00006736,0.00007455,0.00000851
 ,0.00002823,-0.00002128,0.00000493,-0.00002072,0.00001488,-0.00000068,
 0.00001424,-0.00001282,-0.00001094,0.00001140,-0.00000266,-0.00000694,
 -0.00000089,-0.00001121,-0.00000269,-0.00000235,0.00000229,0.00000791,
 -0.00001362,-0.00001626,-0.00000477,-0.00001329,-0.00000238,0.00000409
 ,0.00000026,-0.00000089,-0.00000649,0.00000640,-0.00000124,0.00001243,
 -0.00003008,-0.00000844,-0.00001273,-0.00001650,0.00003613,-0.00000363
 ,0.00000288,0.00000147,-0.00000033,0.00000678,-0.00000312,-0.00000404,
 -0.00000026,0.00001370,-0.00003594,0.00011340,-0.00001861,0.00000654,-
 0.00001233,0.00000146,0.00020424,-0.00021571,0.00009599,-0.00014044,0.
 00004393,-0.00004980,-0.00004668,0.00022201,-0.00001051,0.00006613,0.0
 0013428,0.00003895,0.00026784,0.00040511,0.00013306,-0.00020226,-0.000
 72091,-0.00014325,-0.00015913,-0.00016196,-0.00021842,-0.00006785,0.00
 126733,0.00013922,0.00203983,0.00127401,0.00056011,0.00010974,-0.00005
 282,0.00005418,0.01246741,-0.02731379,0.00272081,-0.00011111,0.0000358
 2,-0.00002083,-0.00952083,0.00157888,-0.00207499,-0.01883622,-0.492023
 46,-0.02132152,0.01405513,0.51520121,0.00008700,0.00010119,0.00002116,
 -0.00036692,0.00002391,-0.00041267,0.00013074,-0.00051873,0.00079210,0
 .00011512,-0.00009602,-0.00001416,-0.00004346,0.00002376,0.00010787,-0
 .00000565,-0.00002844,-0.00002787,0.00001324,-0.00001307,-0.00002137,-
 0.00006087,-0.00004183,-0.00001220,-0.00000988,-0.00001441,-0.00001655
 ,0.00002397,0.00002153,0.00001184,-0.00002288,0.00004282,-0.00002497,-
 0.00001346,-0.00000457,0.00000858,0.00003008,-0.00001743,0.00003859,0.
 00022394,0.00018063,0.00004646,-0.00003559,-0.00001903,-0.00000171,-0.
 00001423,-0.00004596,0.00001640,0.00001128,0.00000501,0.00000976,0.000
 00947,0.00000688,-0.00000194,0.00000010,-0.00000463,0.00000929,0.00000
 006,-0.00000138,-0.00000175,-0.00003514,-0.00001612,-0.00000510,-0.000
 05407,-0.00001742,0.00002229,0.00000029,-0.00002065,0.00001203,0.00000
 580,0.00000170,-0.00000676,0.00000080,-0.00000727,0.00000688,0.0000074
 4,-0.00000669,0.00000344,0.00000413,-0.00000047,0.00000494,0.00000146,
 0.00000135,-0.00000135,-0.00000327,0.00000308,0.00001181,0.00000440,0.
 00000597,0.00000050,0.00000161,0.00000189,-0.00000047,-0.00000332,-0.0
 0000719,0.00000284,-0.00000415,0.00002003,0.00002356,0.00000395,0.0000
 1216,-0.00001450,0.00000133,-0.00000133,-0.00000331,-0.00000483,-0.000
 00254,0.00000049,-0.00000009,-0.00000024,-0.00000839,-0.00000503,-0.00
 000674,0.00000732,-0.00000361,0.00000277,0.00000691,0.00000317,0.00004
 451,-0.00004828,0.00001271,-0.00000726,0.00000176,-0.00002824,-0.00010
 116,-0.00000584,0.00006422,0.00007153,-0.00021661,-0.00000562,0.000024
 86,0.00003879,0.00014974,-0.00009959,0.00003526,-0.00007417,0.00018464
 ,0.00039569,-0.00009020,0.00000751,-0.00036130,-0.00252267,0.00038342,
 0.00405900,-0.00003070,0.00000656,0.00005334,-0.00159214,0.01402024,0.
 00297365,0.00026965,0.00011211,-0.00008327,0.00189767,-0.00132609,-0.0
 0449653,-0.00876230,-0.03373783,-0.01668195,0.01071912,0.02085404,0.01
 374629\\0.00000197,0.00000943,-0.00000645,0.00000197,-0.00001336,0.000
 00432,-0.00000744,0.00001161,-0.00000564,0.00000772,-0.00000469,-0.000
 00314,-0.00000171,-0.00000511,0.00000385,0.00000280,0.00000465,0.00001
 058,-0.00000157,-0.00000991,-0.00000715,0.00001187,0.00000242,0.000005
 17,-0.00001281,-0.00000288,-0.00000227,0.00000458,-0.00000018,0.000005
 14,0.00000087,-0.00000659,0.00000236,0.00000975,-0.00000383,-0.0000017
 3,-0.00000279,-0.00000307,0.00000071,-0.00000482,0.00000035,-0.0000013
 7,-0.00000193,-0.00000373,-0.00000596,-0.00000035,0.00000177,0.0000035
 1,-0.00000029,-0.00000003,-0.00000335,-0.00000299,-0.00000164,0.000003
 69,0.00000423,-0.00000084,0.00000692,0.00000536,-0.00000142,0.00000335
 ,0.00000262,-0.00000113,-0.00000105,0.00000057,0.00000061,0.00000458,0
 .00000228,0.00000299,-0.00000170,-0.00000370,0.00000268,-0.00000118,0.
 00000279,0.00000233,-0.00000467,-0.00000177,0.00000213,0.00000085,-0.0
 0000140,-0.00000006,-0.00000474,-0.00000295,-0.00000429,0.00000054,0.0
 0000269,-0.00000154,-0.00000259,-0.00000339,-0.00000622,0.00000107,0.0
 0000477,0.00000030,0.00000384,0.00000028,-0.00000066,0.00000614,0.0000
 0066,0.00000067,0.00000801,0.00000002,-0.00000245,-0.00000280,0.000002
 87,-0.00000139,0.00000275,0.00000030,-0.00000051,0.00000170,0.00000316
 ,-0.00000207,-0.00000076,-0.00000063,-0.00000074,-0.00000378,-0.000001
 11,0.00000190,-0.00000486,-0.00000399,0.00000623,-0.00000331,-0.000004
 70,0.00000068,-0.00000417,-0.00000364,-0.00000156,-0.00000222,0.000004
 30,0.00000891,-0.00000605,-0.00000324,0.00000186,-0.00000342,0.0000018
 6,0.00000977,0.00000119,-0.00000156,0.00000198,0.00000361,-0.00000202,
 0.00000640,-0.00000019,0.00000132,-0.00000180,-0.00000298,0.00000169,-
 0.00000758,-0.00000299,-0.00000515,-0.00000036,-0.00000040,0.00000291,
 0.00000160,0.00000030,-0.00000780,0.00000283,0.00000318,-0.00000126,0.
 00000399,0.00000215,-0.00000118,0.00000157,0.00000140\\\@


 THE MOST BEAUTIFUL EXPERIENCE WE CAN HAVE IS THE MYSTERIOUS.
 IT IS THE FUNDAMENTAL EMOTION WHICH STANDS AT AT THE CRADLE 
 OF TRUE ART AND TRUE SCIENCE.

                                    -- ALBERT EINSTEIN
 Job cpu time:       3 days 23 hours 40 minutes 53.5 seconds.
 Elapsed time:       0 days  2 hours 39 minutes 34.4 seconds.
 File lengths (MBytes):  RWF=   5643 Int=      0 D2E=      0 Chk=    126 Scr=      1
 Normal termination of Gaussian 16 at Fri Aug  9 19:06:50 2019.
