 Entering Gaussian System, Link 0=g09
 Initial command:
 /projects/nrel/apps/gaussian/g09/B.01/g09/l1.exe /scratch/hbmayes/aglc_b14_157.2106479.scr/Gau-11819.inp -scrdir=/scratch/hbmayes/aglc_b14_157.2106479.scr/
 Default is to use a total of   8 processors:
                                8 via shared-memory
                                1 via Linda
 Entering Link 1 = /projects/nrel/apps/gaussian/g09/B.01/g09/l1.exe PID=     11820.
  
 Copyright (c) 1988,1990,1992,1993,1995,1998,2003,2009,2010,
            Gaussian, Inc.  All Rights Reserved.
  
 This is part of the Gaussian(R) 09 program.  It is based on
 the Gaussian(R) 03 system (copyright 2003, Gaussian, Inc.),
 the Gaussian(R) 98 system (copyright 1998, Gaussian, Inc.),
 the Gaussian(R) 94 system (copyright 1995, Gaussian, Inc.),
 the Gaussian 92(TM) system (copyright 1992, Gaussian, Inc.),
 the Gaussian 90(TM) system (copyright 1990, Gaussian, Inc.),
 the Gaussian 88(TM) system (copyright 1988, Gaussian, Inc.),
 the Gaussian 86(TM) system (copyright 1986, Carnegie Mellon
 University), and the Gaussian 82(TM) system (copyright 1983,
 Carnegie Mellon University). Gaussian is a federally registered
 trademark of Gaussian, Inc.
  
 This software contains proprietary and confidential information,
 including trade secrets, belonging to Gaussian, Inc.
  
 This software is provided under written license and may be
 used, copied, transmitted, or stored only in accord with that
 written license.
  
 The following legend is applicable only to US Government
 contracts under FAR:
  
                    RESTRICTED RIGHTS LEGEND
  
 Use, reproduction and disclosure by the US Government is
 subject to restrictions as set forth in subparagraphs (a)
 and (c) of the Commercial Computer Software - Restricted
 Rights clause in FAR 52.227-19.
  
 Gaussian, Inc.
 340 Quinnipiac St., Bldg. 40, Wallingford CT 06492
  
  
 ---------------------------------------------------------------
 Warning -- This program may not be used in any manner that
 competes with the business of Gaussian, Inc. or will provide
 assistance to any competitor of Gaussian, Inc.  The licensee
 of this program is prohibited from giving any competitor of
 Gaussian, Inc. access to this program.  By using this program,
 the user acknowledges that Gaussian, Inc. is engaged in the
 business of creating and licensing software in the field of
 computational chemistry and represents and warrants to the
 licensee that it is not a competitor of Gaussian, Inc. and that
 it will not use this program in any manner prohibited above.
 ---------------------------------------------------------------
  

 Cite this work as:
 Gaussian 09, Revision B.01,
 M. J. Frisch, G. W. Trucks, H. B. Schlegel, G. E. Scuseria, 
 M. A. Robb, J. R. Cheeseman, G. Scalmani, V. Barone, B. Mennucci, 
 G. A. Petersson, H. Nakatsuji, M. Caricato, X. Li, H. P. Hratchian, 
 A. F. Izmaylov, J. Bloino, G. Zheng, J. L. Sonnenberg, M. Hada, 
 M. Ehara, K. Toyota, R. Fukuda, J. Hasegawa, M. Ishida, T. Nakajima, 
 Y. Honda, O. Kitao, H. Nakai, T. Vreven, J. A. Montgomery, Jr., 
 J. E. Peralta, F. Ogliaro, M. Bearpark, J. J. Heyd, E. Brothers, 
 K. N. Kudin, V. N. Staroverov, T. Keith, R. Kobayashi, J. Normand, 
 K. Raghavachari, A. Rendell, J. C. Burant, S. S. Iyengar, J. Tomasi, 
 M. Cossi, N. Rega, J. M. Millam, M. Klene, J. E. Knox, J. B. Cross, 
 V. Bakken, C. Adamo, J. Jaramillo, R. Gomperts, R. E. Stratmann, 
 O. Yazyev, A. J. Austin, R. Cammi, C. Pomelli, J. W. Ochterski, 
 R. L. Martin, K. Morokuma, V. G. Zakrzewski, G. A. Voth, 
 P. Salvador, J. J. Dannenberg, S. Dapprich, A. D. Daniels, 
 O. Farkas, J. B. Foresman, J. V. Ortiz, J. Cioslowski, 
 and D. J. Fox, Gaussian, Inc., Wallingford CT, 2010.
 
 ******************************************
 Gaussian 09:  EM64L-G09RevB.01 12-Aug-2010
                16-Jul-2012 
 ******************************************
 %RWF=/dev/shm/,2GB,/scratch/hbmayes/aglc_b14_157.2106479.scr/,-1
 %NoSave
 %chk=/scratch/hbmayes/aglucose/aglc_b14_157.chk
 %mem=10GB
 %nproc=8
 Will use up to    8 processors via shared memory.
 Default route:  MaxDisk=16GB
 -------------------------------------------------
 # opt(modredundant) m062x/6-31G(d) scf=xqc nosymm
 -------------------------------------------------
 1/14=-1,18=120,19=15,26=3,38=1/1,3;
 2/9=110,12=2,15=1,17=6,18=5,40=1/2;
 3/5=1,6=6,7=1,11=2,16=1,25=1,30=1,71=1,74=-55/1,2,3;
 4//1;
 5/5=2,8=3,13=1,38=5/2,8;
 6/7=2,8=2,9=2,10=2,28=1/1;
 7/30=1/1,2,3,16;
 1/14=-1,18=20,19=15/3(2);
 2/9=110,15=1/2;
 99//99;
 2/9=110,15=1/2;
 3/5=1,6=6,7=1,11=2,16=1,25=1,30=1,71=1,74=-55/1,2,3;
 4/5=5,16=3/1;
 5/5=2,8=3,13=1,38=5/2,8;
 7/30=1/1,2,3,16;
 1/14=-1,18=20,19=15/3(-5);
 2/9=110,15=1/2;
 6/7=2,8=2,9=2,10=2,19=2,28=1/1;
 99/9=1/99;
 ---------------------------------------------
 Starting Geometry for Conformational Analysis
 ---------------------------------------------
 Symbolic Z-matrix:
 Charge =  0 Multiplicity = 1
 C                    -14.88628  -1.9072   -29.57992 
 H                    -14.88431  -2.86318  -30.11657 
 O                    -13.79539  -1.26009  -30.12051 
 H                    -13.6524  -0.41271  -29.65929 
 C                    -15.11946  -1.26771  -27.20507 
 H                    -14.17997  -1.17436  -26.64696 
 O                    -14.89816  -2.36034  -28.21439 
 C                    -16.29301  -1.32575  -29.83898 
 H                    -17.00037  -2.13856  -29.63784 
 O                    -16.41457  -0.93538  -31.18811 
 H                    -16.8338  -1.6827   -31.64664 
 C                    -16.58341  -0.14864  -28.86802 
 H                    -16.69729   0.7493   -29.49852 
 O                    -17.694   -0.29828  -28.02287 
 H                    -18.46791  -0.46293  -28.58029 
 C                    -15.35234   0.02811  -27.97687 
 H                    -15.69582   0.72696  -27.19296 
 O                    -14.19738   0.61374  -28.53711 
 H                    -13.97935   0.12712  -29.34467 
 C                    -16.16606  -1.80264  -26.24177 
 H                    -15.79649  -2.69159  -25.7219 
 H                    -16.42585  -1.04762  -25.49703 
 O                    -17.29115  -2.19273  -26.9995 
 H                    -17.56375  -1.40551  -27.49662 
 
 The following ModRedundant input section has been read:
 D       7       1       8      12 F                                           
 D       1       8      12      16 F                                           
 D       8      12      16       5 F                                           
 D       7       5      16      12 F                                           

 GradGradGradGradGradGradGradGradGradGradGradGradGradGradGradGradGradGrad
 Berny optimization.
 Initialization pass.
                           ----------------------------
                           !    Initial Parameters    !
                           ! (Angstroms and Degrees)  !
 --------------------------                            --------------------------
 ! Name  Definition              Value          Derivative Info.                !
 --------------------------------------------------------------------------------
 ! R1    R(1,2)                  1.0963         estimate D2E/DX2                !
 ! R2    R(1,3)                  1.3788         estimate D2E/DX2                !
 ! R3    R(1,7)                  1.4388         estimate D2E/DX2                !
 ! R4    R(1,8)                  1.5441         estimate D2E/DX2                !
 ! R5    R(3,4)                  0.9753         estimate D2E/DX2                !
 ! R6    R(4,19)                 0.7052         estimate D2E/DX2                !
 ! R7    R(5,6)                  1.0967         estimate D2E/DX2                !
 ! R8    R(5,7)                  1.5038         estimate D2E/DX2                !
 ! R9    R(5,16)                 1.5261         estimate D2E/DX2                !
 ! R10   R(5,20)                 1.5197         estimate D2E/DX2                !
 ! R11   R(8,9)                  1.0961         estimate D2E/DX2                !
 ! R12   R(8,10)                 1.4097         estimate D2E/DX2                !
 ! R13   R(8,12)                 1.5533         estimate D2E/DX2                !
 ! R14   R(10,11)                0.9718         estimate D2E/DX2                !
 ! R15   R(12,13)                1.1031         estimate D2E/DX2                !
 ! R16   R(12,14)                1.4036         estimate D2E/DX2                !
 ! R17   R(12,16)                1.53           estimate D2E/DX2                !
 ! R18   R(14,15)                0.9679         estimate D2E/DX2                !
 ! R19   R(14,24)                1.2328         estimate D2E/DX2                !
 ! R20   R(16,17)                1.1049         estimate D2E/DX2                !
 ! R21   R(16,18)                1.4109         estimate D2E/DX2                !
 ! R22   R(18,19)                0.9677         estimate D2E/DX2                !
 ! R23   R(20,21)                1.0941         estimate D2E/DX2                !
 ! R24   R(20,22)                1.0919         estimate D2E/DX2                !
 ! R25   R(20,23)                1.4114         estimate D2E/DX2                !
 ! R26   R(23,24)                0.9701         estimate D2E/DX2                !
 ! A1    A(2,1,3)              102.4693         estimate D2E/DX2                !
 ! A2    A(2,1,7)              100.9506         estimate D2E/DX2                !
 ! A3    A(2,1,8)              104.3521         estimate D2E/DX2                !
 ! A4    A(3,1,7)              121.7668         estimate D2E/DX2                !
 ! A5    A(3,1,8)              118.5746         estimate D2E/DX2                !
 ! A6    A(7,1,8)              105.6831         estimate D2E/DX2                !
 ! A7    A(1,3,4)              109.7771         estimate D2E/DX2                !
 ! A8    A(3,4,19)             143.9116         estimate D2E/DX2                !
 ! A9    A(6,5,7)              106.1007         estimate D2E/DX2                !
 ! A10   A(6,5,16)             108.4085         estimate D2E/DX2                !
 ! A11   A(6,5,20)             107.2981         estimate D2E/DX2                !
 ! A12   A(7,5,16)             107.4547         estimate D2E/DX2                !
 ! A13   A(7,5,20)             105.7259         estimate D2E/DX2                !
 ! A14   A(16,5,20)            120.9543         estimate D2E/DX2                !
 ! A15   A(1,7,5)              114.1653         estimate D2E/DX2                !
 ! A16   A(1,8,9)              106.1351         estimate D2E/DX2                !
 ! A17   A(1,8,10)             110.0846         estimate D2E/DX2                !
 ! A18   A(1,8,12)             110.5381         estimate D2E/DX2                !
 ! A19   A(9,8,10)             108.9843         estimate D2E/DX2                !
 ! A20   A(9,8,12)             109.0622         estimate D2E/DX2                !
 ! A21   A(10,8,12)            111.8554         estimate D2E/DX2                !
 ! A22   A(8,10,11)            106.0091         estimate D2E/DX2                !
 ! A23   A(8,12,13)            106.1939         estimate D2E/DX2                !
 ! A24   A(8,12,14)            116.3293         estimate D2E/DX2                !
 ! A25   A(8,12,16)            107.5299         estimate D2E/DX2                !
 ! A26   A(13,12,14)           110.4428         estimate D2E/DX2                !
 ! A27   A(13,12,16)           108.7805         estimate D2E/DX2                !
 ! A28   A(14,12,16)           107.3528         estimate D2E/DX2                !
 ! A29   A(12,14,15)           107.7001         estimate D2E/DX2                !
 ! A30   A(5,16,12)            108.6175         estimate D2E/DX2                !
 ! A31   A(5,16,17)            103.0429         estimate D2E/DX2                !
 ! A32   A(5,16,18)            115.3609         estimate D2E/DX2                !
 ! A33   A(12,16,17)           103.6605         estimate D2E/DX2                !
 ! A34   A(12,16,18)           118.3799         estimate D2E/DX2                !
 ! A35   A(17,16,18)           105.8815         estimate D2E/DX2                !
 ! A36   A(16,18,19)           107.8827         estimate D2E/DX2                !
 ! A37   A(4,19,18)            149.5074         estimate D2E/DX2                !
 ! A38   A(5,20,21)            110.7658         estimate D2E/DX2                !
 ! A39   A(5,20,22)            110.6591         estimate D2E/DX2                !
 ! A40   A(5,20,23)            107.8156         estimate D2E/DX2                !
 ! A41   A(21,20,22)           108.5482         estimate D2E/DX2                !
 ! A42   A(21,20,23)           107.4456         estimate D2E/DX2                !
 ! A43   A(22,20,23)           111.5696         estimate D2E/DX2                !
 ! A44   A(20,23,24)           105.9512         estimate D2E/DX2                !
 ! D1    D(2,1,3,4)           -175.3435         estimate D2E/DX2                !
 ! D2    D(7,1,3,4)            -63.889          estimate D2E/DX2                !
 ! D3    D(8,1,3,4)             70.482          estimate D2E/DX2                !
 ! D4    D(2,1,7,5)           -170.946          estimate D2E/DX2                !
 ! D5    D(3,1,7,5)             76.8144         estimate D2E/DX2                !
 ! D6    D(8,1,7,5)            -62.4906         estimate D2E/DX2                !
 ! D7    D(2,1,8,9)             47.85           estimate D2E/DX2                !
 ! D8    D(2,1,8,10)           -69.948          estimate D2E/DX2                !
 ! D9    D(2,1,8,12)           165.9782         estimate D2E/DX2                !
 ! D10   D(3,1,8,9)            160.9999         estimate D2E/DX2                !
 ! D11   D(3,1,8,10)            43.2019         estimate D2E/DX2                !
 ! D12   D(3,1,8,12)           -80.8719         estimate D2E/DX2                !
 ! D13   D(7,1,8,9)            -58.1421         estimate D2E/DX2                !
 ! D14   D(7,1,8,10)          -175.9401         estimate D2E/DX2                !
 ! D15   D(7,1,8,12)            59.9861         Frozen                          !
 ! D16   D(1,3,4,19)           -34.6667         estimate D2E/DX2                !
 ! D17   D(3,4,19,18)          109.9835         estimate D2E/DX2                !
 ! D18   D(6,5,7,1)           -112.507          estimate D2E/DX2                !
 ! D19   D(16,5,7,1)             3.2977         estimate D2E/DX2                !
 ! D20   D(20,5,7,1)           133.7401         estimate D2E/DX2                !
 ! D21   D(6,5,16,12)          174.2566         estimate D2E/DX2                !
 ! D22   D(6,5,16,17)          -76.2409         estimate D2E/DX2                !
 ! D23   D(6,5,16,18)           38.6352         estimate D2E/DX2                !
 ! D24   D(7,5,16,12)           59.9865         Frozen                          !
 ! D25   D(7,5,16,17)          169.489          estimate D2E/DX2                !
 ! D26   D(7,5,16,18)          -75.6349         estimate D2E/DX2                !
 ! D27   D(20,5,16,12)         -61.3383         estimate D2E/DX2                !
 ! D28   D(20,5,16,17)          48.1642         estimate D2E/DX2                !
 ! D29   D(20,5,16,18)         163.0403         estimate D2E/DX2                !
 ! D30   D(6,5,20,21)          -50.5368         estimate D2E/DX2                !
 ! D31   D(6,5,20,22)           69.8977         estimate D2E/DX2                !
 ! D32   D(6,5,20,23)         -167.8358         estimate D2E/DX2                !
 ! D33   D(7,5,20,21)           62.3834         estimate D2E/DX2                !
 ! D34   D(7,5,20,22)         -177.1821         estimate D2E/DX2                !
 ! D35   D(7,5,20,23)          -54.9156         estimate D2E/DX2                !
 ! D36   D(16,5,20,21)        -175.459          estimate D2E/DX2                !
 ! D37   D(16,5,20,22)         -55.0246         estimate D2E/DX2                !
 ! D38   D(16,5,20,23)          67.242          estimate D2E/DX2                !
 ! D39   D(1,8,10,11)           95.5869         estimate D2E/DX2                !
 ! D40   D(9,8,10,11)          -20.4345         estimate D2E/DX2                !
 ! D41   D(12,8,10,11)        -141.1057         estimate D2E/DX2                !
 ! D42   D(1,8,12,13)          116.3149         estimate D2E/DX2                !
 ! D43   D(1,8,12,14)         -120.3513         estimate D2E/DX2                !
 ! D44   D(1,8,12,16)            0.0            Frozen                          !
 ! D45   D(9,8,12,13)         -127.3617         estimate D2E/DX2                !
 ! D46   D(9,8,12,14)           -4.0279         estimate D2E/DX2                !
 ! D47   D(9,8,12,16)          116.3234         estimate D2E/DX2                !
 ! D48   D(10,8,12,13)          -6.7359         estimate D2E/DX2                !
 ! D49   D(10,8,12,14)         116.598          estimate D2E/DX2                !
 ! D50   D(10,8,12,16)        -123.0508         estimate D2E/DX2                !
 ! D51   D(8,12,14,15)         -56.2565         estimate D2E/DX2                !
 ! D52   D(13,12,14,15)         64.8443         estimate D2E/DX2                !
 ! D53   D(16,12,14,15)       -176.7026         estimate D2E/DX2                !
 ! D54   D(8,12,16,5)          -59.9861         Frozen                          !
 ! D55   D(8,12,16,17)        -169.0699         estimate D2E/DX2                !
 ! D56   D(8,12,16,18)          74.0974         estimate D2E/DX2                !
 ! D57   D(13,12,16,5)        -174.5892         estimate D2E/DX2                !
 ! D58   D(13,12,16,17)         76.327          estimate D2E/DX2                !
 ! D59   D(13,12,16,18)        -40.5057         estimate D2E/DX2                !
 ! D60   D(14,12,16,5)          65.8885         estimate D2E/DX2                !
 ! D61   D(14,12,16,17)        -43.1953         estimate D2E/DX2                !
 ! D62   D(14,12,16,18)       -160.028          estimate D2E/DX2                !
 ! D63   D(5,16,18,19)          78.5414         estimate D2E/DX2                !
 ! D64   D(12,16,18,19)        -52.5782         estimate D2E/DX2                !
 ! D65   D(17,16,18,19)       -168.2227         estimate D2E/DX2                !
 ! D66   D(16,18,19,4)         -86.9525         estimate D2E/DX2                !
 ! D67   D(5,20,23,24)         -56.817          estimate D2E/DX2                !
 ! D68   D(21,20,23,24)       -176.2466         estimate D2E/DX2                !
 ! D69   D(22,20,23,24)         64.8864         estimate D2E/DX2                !
 --------------------------------------------------------------------------------
 Trust Radius=3.00D-01 FncErr=1.00D-07 GrdErr=1.00D-06
 Number of steps in this run=    144 maximum allowed number of steps=    144.
 GradGradGradGradGradGradGradGradGradGradGradGradGradGradGradGradGradGrad

                          Input orientation:                          
 ---------------------------------------------------------------------
 Center     Atomic      Atomic             Coordinates (Angstroms)
 Number     Number       Type             X           Y           Z
 ---------------------------------------------------------------------
      1          6           0      -14.886278   -1.907203  -29.579917
      2          1           0      -14.884309   -2.863184  -30.116570
      3          8           0      -13.795394   -1.260085  -30.120512
      4          1           0      -13.652401   -0.412713  -29.659289
      5          6           0      -15.119462   -1.267714  -27.205071
      6          1           0      -14.179968   -1.174356  -26.646961
      7          8           0      -14.898157   -2.360344  -28.214393
      8          6           0      -16.293011   -1.325746  -29.838982
      9          1           0      -17.000372   -2.138562  -29.637844
     10          8           0      -16.414566   -0.935378  -31.188110
     11          1           0      -16.833799   -1.682698  -31.646638
     12          6           0      -16.583414   -0.148636  -28.868018
     13          1           0      -16.697290    0.749298  -29.498516
     14          8           0      -17.694000   -0.298284  -28.022870
     15          1           0      -18.467912   -0.462929  -28.580294
     16          6           0      -15.352342    0.028113  -27.976866
     17          1           0      -15.695819    0.726958  -27.192961
     18          8           0      -14.197379    0.613738  -28.537105
     19          1           0      -13.979347    0.127124  -29.344670
     20          6           0      -16.166063   -1.802644  -26.241769
     21          1           0      -15.796485   -2.691585  -25.721901
     22          1           0      -16.425846   -1.047621  -25.497025
     23          8           0      -17.291150   -2.192727  -26.999503
     24          1           0      -17.563754   -1.405507  -27.496616
 ---------------------------------------------------------------------
                    Distance matrix (angstroms):
                    1          2          3          4          5
     1  C    0.000000
     2  H    1.096312   0.000000
     3  O    1.378779   1.937957   0.000000
     4  H    1.939653   2.780560   0.975301   0.000000
     5  C    2.470468   3.328310   3.202032   2.984373   0.000000
     6  H    3.104540   3.922553   3.495827   3.151594   1.096746
     7  O    1.438796   1.967566   2.461696   2.726334   1.503844
     8  C    1.544055   2.103619   2.514291   2.799775   2.884107
     9  H    2.127505   2.287352   3.358061   3.766686   3.196026
    10  O    2.422064   2.684459   2.846974   3.200004   4.201469
    11  H    2.848610   2.745026   3.426305   3.960267   4.778983
    12  C    2.545511   3.437239   3.252248   3.047406   2.482113
    13  H    3.216114   4.088877   3.584062   3.263046   3.437698
    14  O    3.591144   4.342425   4.530374   4.361821   2.869989
    15  H    3.989145   4.578600   4.983990   4.935170   3.708239
    16  C    2.555863   3.627256   2.945973   2.432010   1.526129
    17  H    3.645781   4.700549   4.016281   3.399585   2.076307
    18  O    2.813749   3.880151   2.485957   1.615518   2.482824
    19  H    2.239721   3.218187   1.600037   0.705197   2.797020
    20  C    3.576593   4.216838   4.578110   4.464286   1.519696
    21  H    4.040794   4.491617   5.039974   5.029252   2.164616
    22  H    4.447377   5.197384   5.323631   5.041780   2.161597
    23  O    3.538851   3.994809   4.778162   4.845968   2.369417
    24  H    3.429391   4.020996   4.594183   4.578371   2.465471
                    6          7          8          9         10
     6  H    0.000000
     7  O    2.092655   0.000000
     8  C    3.831040   2.378087   0.000000
     9  H    4.222529   2.548472   1.096123   0.000000
    10  O    5.066811   3.629465   1.409720   2.047961   0.000000
    11  H    5.683133   3.998277   1.920283   2.066594   0.971849
    12  C    3.429541   2.856391   1.553285   2.174004   2.455667
    13  H    4.262478   3.815197   2.141300   2.907061   2.402664
    14  O    3.874151   3.479297   2.513307   2.544776   3.472979
    15  H    4.757139   4.059214   2.656867   2.465731   3.352632
    16  C    2.142204   2.442832   2.487020   3.188939   3.516919
    17  H    2.492171   3.348286   3.401714   3.986291   4.386476
    18  O    2.601966   3.072523   3.138177   4.079651   3.787282
    19  H    3.001955   2.882574   2.776368   3.787595   3.233802
    20  C    2.122145   2.410365   3.630907   3.513152   5.027941
    21  H    2.402259   2.670062   4.366052   4.133980   5.774576
    22  H    2.526338   3.382479   4.352883   4.320488   5.692203
    23  O    3.292540   2.688953   3.132184   2.654869   4.460242
    24  H    3.496477   2.921014   2.666051   2.332301   3.894712
                   11         12         13         14         15
    11  H    0.000000
    12  C    3.183829   0.000000
    13  H    3.247717   1.103078   0.000000
    14  O    3.973442   1.403592   2.066008   0.000000
    15  H    3.682476   1.932071   2.334037   0.967868   0.000000
    16  C    4.311475   1.530010   2.155090   2.364744   3.211234
    17  H    5.190056   2.088135   2.513768   2.394284   3.320395
    18  O    4.679052   2.526634   2.681836   3.650011   4.404376
    19  H    4.089304   2.661655   2.792487   3.965700   4.591258
    20  C    5.447281   3.131630   4.171452   2.787474   3.544297
    21  H    6.098884   4.121153   5.187865   3.823992   4.502648
    22  H    6.195764   3.492362   4.394830   2.923972   3.744122
    23  O    4.697357   2.858417   3.905541   2.190544   2.622188
    24  H    4.222837   2.102745   3.066194   1.232822   1.697148
                   16         17         18         19         20
    16  C    0.000000
    17  H    1.104929   0.000000
    18  O    1.410944   2.016151   0.000000
    19  H    1.940569   2.817078   0.967725   0.000000
    20  C    2.650354   2.743134   3.870812   4.258371   0.000000
    21  H    3.560743   3.722981   4.626843   4.936757   1.094105
    22  H    2.908475   2.560912   4.119255   4.708477   1.091875
    23  O    3.105857   3.332727   4.451054   4.674351   1.411434
    24  H    2.678852   2.851104   4.061090   4.314190   1.919870
                   21         22         23         24
    21  H    0.000000
    22  H    1.774622   0.000000
    23  O    2.028583   2.077850   0.000000
    24  H    2.815466   2.328364   0.970129   0.000000
 Symmetry turned off by external request.
 Stoichiometry    C6H12O6
 Framework group  C1[X(C6H12O6)]
 Deg. of freedom    66
 Full point group                 C1      NOp   1
 Rotational constants (GHZ):      1.3013265      0.9087698      0.7939542
 Standard basis: 6-31G(d) (6D, 7F)
 Integral buffers will be    131072 words long.
 Raffenetti 2 integral format.
 Two-electron integral symmetry is turned off.
   204 basis functions,   384 primitive gaussians,   204 cartesian basis functions
    48 alpha electrons       48 beta electrons
       nuclear repulsion energy       879.8500040067 Hartrees.
 NAtoms=   24 NActive=   24 NUniq=   24 SFac= 1.00D+00 NAtFMM=   50 NAOKFM=F Big=F
 One-electron integrals computed using PRISM.
 NBasis=   204 RedAO= T  NBF=   204
 NBsUse=   204 1.00D-06 NBFU=   204
 Harris functional with IExCor= 1009 diagonalized for initial guess.
 ExpMin= 1.61D-01 ExpMax= 5.48D+03 ExpMxC= 8.25D+02 IAcc=1 IRadAn=         1 AccDes= 0.00D+00
 HarFok:  IExCor= 1009 AccDes= 0.00D+00 IRadAn=         1 IDoV= 1
 ScaDFX=  1.000000  1.000000  1.000000  1.000000
 FoFCou: FMM=F IPFlag=           0 FMFlag=      100000 FMFlg1=           0
         NFxFlg=           0 DoJE=T BraDBF=F KetDBF=T FulRan=T
         Omega=  0.000000  0.000000  1.000000  0.000000  0.000000 ICntrl=     500 IOpCl=  0
         NMat0=    1 NMatS0=    1 NMatT0=    0 NMatD0=    1 NMtDS0=    0 NMtDT0=    0
         I1Cent=           4 NGrid=           0.
 Symmetry not used in FoFCou.
 Requested convergence on RMS density matrix=1.00D-08 within  64 cycles.
 Requested convergence on MAX density matrix=1.00D-06.
 Requested convergence on             energy=1.00D-06.
 No special actions if energy rises.
 Keep R1 ints in memory in canonical form, NReq=223266505.
 Integral accuracy reduced to 1.0D-05 until final iterations.
 Initial convergence to 1.0D-05 achieved.  Increase integral accuracy.
 SCF Done:  E(RM062X) =  -686.685236152     A.U. after   14 cycles
             Convg  =    0.9090D-08             -V/T =  2.0067
 QCSCF skips out because SCF is already converged.

 **********************************************************************

            Population analysis using the SCF density.

 **********************************************************************

 Alpha  occ. eigenvalues --  -19.71099 -19.67915 -19.67584 -19.66036 -19.64470
 Alpha  occ. eigenvalues --  -19.56578 -10.65463 -10.63519 -10.62559 -10.62045
 Alpha  occ. eigenvalues --  -10.60012 -10.57852  -1.25042  -1.24092  -1.17547
 Alpha  occ. eigenvalues --   -1.16288  -1.13289  -1.09231  -0.91410  -0.86962
 Alpha  occ. eigenvalues --   -0.80818  -0.78207  -0.73646  -0.69278  -0.65997
 Alpha  occ. eigenvalues --   -0.64169  -0.62214  -0.60684  -0.59088  -0.57802
 Alpha  occ. eigenvalues --   -0.54888  -0.53761  -0.51991  -0.51151  -0.49631
 Alpha  occ. eigenvalues --   -0.49375  -0.46072  -0.45370  -0.44675  -0.42940
 Alpha  occ. eigenvalues --   -0.42075  -0.40386  -0.38813  -0.37139  -0.35860
 Alpha  occ. eigenvalues --   -0.33797  -0.32123  -0.30592
 Alpha virt. eigenvalues --    0.07419   0.07757   0.11834   0.12492   0.14920
 Alpha virt. eigenvalues --    0.16775   0.16898   0.18130   0.19081   0.21525
 Alpha virt. eigenvalues --    0.22421   0.22656   0.23928   0.24634   0.25812
 Alpha virt. eigenvalues --    0.28117   0.28734   0.30500   0.32846   0.34154
 Alpha virt. eigenvalues --    0.35816   0.36717   0.39754   0.44466   0.51972
 Alpha virt. eigenvalues --    0.57233   0.58781   0.59071   0.60634   0.61867
 Alpha virt. eigenvalues --    0.62951   0.64218   0.65286   0.66855   0.69397
 Alpha virt. eigenvalues --    0.69696   0.71088   0.75160   0.76370   0.78741
 Alpha virt. eigenvalues --    0.81681   0.81866   0.82894   0.85737   0.88221
 Alpha virt. eigenvalues --    0.88598   0.90152   0.91602   0.93023   0.95363
 Alpha virt. eigenvalues --    0.96077   0.96881   0.98584   0.99139   1.00578
 Alpha virt. eigenvalues --    1.02665   1.03894   1.05162   1.09932   1.11059
 Alpha virt. eigenvalues --    1.12582   1.14966   1.16291   1.18330   1.18581
 Alpha virt. eigenvalues --    1.21141   1.23883   1.26813   1.28728   1.31379
 Alpha virt. eigenvalues --    1.32475   1.34595   1.37167   1.38848   1.39618
 Alpha virt. eigenvalues --    1.45621   1.46523   1.50057   1.52234   1.56179
 Alpha virt. eigenvalues --    1.57389   1.60550   1.63088   1.65874   1.67658
 Alpha virt. eigenvalues --    1.69730   1.71515   1.72766   1.74858   1.76561
 Alpha virt. eigenvalues --    1.77445   1.79903   1.81566   1.83035   1.83942
 Alpha virt. eigenvalues --    1.86275   1.87639   1.89240   1.90685   1.94478
 Alpha virt. eigenvalues --    1.95328   1.98524   2.02560   2.03109   2.05538
 Alpha virt. eigenvalues --    2.08027   2.09547   2.12900   2.15296   2.16998
 Alpha virt. eigenvalues --    2.21602   2.24257   2.25229   2.26604   2.28270
 Alpha virt. eigenvalues --    2.29650   2.34007   2.34706   2.38870   2.42891
 Alpha virt. eigenvalues --    2.43389   2.46734   2.48517   2.50446   2.51001
 Alpha virt. eigenvalues --    2.55285   2.57622   2.60530   2.62182   2.66595
 Alpha virt. eigenvalues --    2.68534   2.71360   2.79101   2.80527   2.81078
 Alpha virt. eigenvalues --    2.85320   2.90065   2.91643   2.95320   2.97239
 Alpha virt. eigenvalues --    2.98711   3.03126   3.18324   3.23498   3.75600
 Alpha virt. eigenvalues --    3.85001   4.01055   4.03389   4.11095   4.20707
 Alpha virt. eigenvalues --    4.30929   4.39939   4.56894   4.60877   4.76667
 Alpha virt. eigenvalues --    5.00097
          Condensed to atoms (all electrons):
              1          2          3          4          5          6
     1  C    4.761781   0.406502   0.233197  -0.032744  -0.035728  -0.001437
     2  H    0.406502   0.544575  -0.050665   0.005086   0.005742  -0.000158
     3  O    0.233197  -0.050665   8.327178   0.161938  -0.000088   0.000688
     4  H   -0.032744   0.005086   0.161938   0.518383  -0.000971   0.000453
     5  C   -0.035728   0.005742  -0.000088  -0.000971   5.094678   0.361193
     6  H   -0.001437  -0.000158   0.000688   0.000453   0.361193   0.584663
     7  O    0.211931  -0.041993  -0.041633  -0.002217   0.184979  -0.033604
     8  C    0.288176  -0.050787  -0.056556   0.007943  -0.037213   0.000412
     9  H   -0.034995  -0.007604   0.002935  -0.000621   0.000732   0.000061
    10  O   -0.054825   0.002863   0.002818  -0.000937   0.000329   0.000008
    11  H    0.001325   0.001244   0.000045  -0.000003  -0.000019   0.000000
    12  C   -0.068371   0.006090  -0.001919   0.006934  -0.040876   0.007455
    13  H    0.002631  -0.000204   0.000064  -0.000968   0.006430  -0.000120
    14  O    0.003262  -0.000103  -0.000011  -0.000059   0.005335  -0.000060
    15  H    0.000122  -0.000004   0.000001   0.000008  -0.000410   0.000014
    16  C    0.009580  -0.000250   0.009040  -0.008254   0.319805  -0.047345
    17  H    0.000404   0.000008  -0.000299   0.000845  -0.052519  -0.001058
    18  O    0.015320  -0.000194  -0.078546   0.079414  -0.048403  -0.000996
    19  H   -0.000277   0.000996   0.063832  -0.104622   0.006990  -0.001179
    20  C    0.002789  -0.000159  -0.000092   0.000334   0.303756  -0.041658
    21  H   -0.000045  -0.000009   0.000000  -0.000007  -0.023445  -0.004137
    22  H   -0.000225   0.000005   0.000002   0.000002  -0.056319   0.004801
    23  O   -0.002270  -0.000008  -0.000003  -0.000006  -0.070275   0.004430
    24  H   -0.000388   0.000018   0.000012  -0.000010   0.011403  -0.000814
              7          8          9         10         11         12
     1  C    0.211931   0.288176  -0.034995  -0.054825   0.001325  -0.068371
     2  H   -0.041993  -0.050787  -0.007604   0.002863   0.001244   0.006090
     3  O   -0.041633  -0.056556   0.002935   0.002818   0.000045  -0.001919
     4  H   -0.002217   0.007943  -0.000621  -0.000937  -0.000003   0.006934
     5  C    0.184979  -0.037213   0.000732   0.000329  -0.000019  -0.040876
     6  H   -0.033604   0.000412   0.000061   0.000008   0.000000   0.007455
     7  O    8.387007  -0.048476   0.003961   0.002026  -0.000062  -0.004370
     8  C   -0.048476   5.185334   0.367151   0.176359  -0.023240   0.295737
     9  H    0.003961   0.367151   0.555071  -0.028041  -0.012236  -0.043121
    10  O    0.002026   0.176359  -0.028041   8.331766   0.248794  -0.046954
    11  H   -0.000062  -0.023240  -0.012236   0.248794   0.352881   0.006225
    12  C   -0.004370   0.295737  -0.043121  -0.046954   0.006225   5.137106
    13  H   -0.000149  -0.050199   0.004407   0.003912  -0.000196   0.372787
    14  O   -0.000561  -0.035748  -0.001420   0.001071  -0.000142   0.143046
    15  H   -0.000051  -0.001459   0.002312   0.000650  -0.000126  -0.018365
    16  C   -0.048927  -0.044214   0.000514   0.001474  -0.000215   0.301933
    17  H    0.003530   0.007084  -0.000291  -0.000057   0.000006  -0.047366
    18  O   -0.000557   0.004122   0.000017  -0.000119   0.000001  -0.041291
    19  H    0.003412  -0.009160   0.000454   0.001437   0.000015  -0.015686
    20  C   -0.049813   0.000528  -0.000520  -0.000021   0.000000  -0.006165
    21  H   -0.001816   0.000068  -0.000070   0.000000   0.000000  -0.000164
    22  H    0.003390   0.000216   0.000121   0.000001   0.000000   0.000311
    23  O   -0.002170   0.000950   0.009248   0.000065   0.000003   0.027082
    24  H    0.001131   0.001495   0.002668  -0.000291  -0.000005  -0.012444
             13         14         15         16         17         18
     1  C    0.002631   0.003262   0.000122   0.009580   0.000404   0.015320
     2  H   -0.000204  -0.000103  -0.000004  -0.000250   0.000008  -0.000194
     3  O    0.000064  -0.000011   0.000001   0.009040  -0.000299  -0.078546
     4  H   -0.000968  -0.000059   0.000008  -0.008254   0.000845   0.079414
     5  C    0.006430   0.005335  -0.000410   0.319805  -0.052519  -0.048403
     6  H   -0.000120  -0.000060   0.000014  -0.047345  -0.001058  -0.000996
     7  O   -0.000149  -0.000561  -0.000051  -0.048927   0.003530  -0.000557
     8  C   -0.050199  -0.035748  -0.001459  -0.044214   0.007084   0.004122
     9  H    0.004407  -0.001420   0.002312   0.000514  -0.000291   0.000017
    10  O    0.003912   0.001071   0.000650   0.001474  -0.000057  -0.000119
    11  H   -0.000196  -0.000142  -0.000126  -0.000215   0.000006   0.000001
    12  C    0.372787   0.143046  -0.018365   0.301933  -0.047366  -0.041291
    13  H    0.522765  -0.026096  -0.003768  -0.034484  -0.005860   0.002587
    14  O   -0.026096   8.461255   0.241433  -0.045574   0.003270   0.001154
    15  H   -0.003768   0.241433   0.317886   0.005410  -0.000240  -0.000074
    16  C   -0.034484  -0.045574   0.005410   4.977107   0.380389   0.247017
    17  H   -0.005860   0.003270  -0.000240   0.380389   0.544358  -0.031341
    18  O    0.002587   0.001154  -0.000074   0.247017  -0.031341   8.383354
    19  H    0.001676   0.000094  -0.000020  -0.027953   0.002751   0.077163
    20  C    0.000050   0.012836   0.000021  -0.026710   0.000772   0.002558
    21  H    0.000002  -0.000351  -0.000004   0.004394  -0.000131  -0.000050
    22  H    0.000012   0.001508  -0.000068  -0.009477   0.004053   0.000012
    23  O   -0.000161  -0.181026   0.006022  -0.011249   0.000146  -0.000018
    24  H    0.001564   0.060825  -0.004326   0.001448  -0.000269   0.000016
             19         20         21         22         23         24
     1  C   -0.000277   0.002789  -0.000045  -0.000225  -0.002270  -0.000388
     2  H    0.000996  -0.000159  -0.000009   0.000005  -0.000008   0.000018
     3  O    0.063832  -0.000092   0.000000   0.000002  -0.000003   0.000012
     4  H   -0.104622   0.000334  -0.000007   0.000002  -0.000006  -0.000010
     5  C    0.006990   0.303756  -0.023445  -0.056319  -0.070275   0.011403
     6  H   -0.001179  -0.041658  -0.004137   0.004801   0.004430  -0.000814
     7  O    0.003412  -0.049813  -0.001816   0.003390  -0.002170   0.001131
     8  C   -0.009160   0.000528   0.000068   0.000216   0.000950   0.001495
     9  H    0.000454  -0.000520  -0.000070   0.000121   0.009248   0.002668
    10  O    0.001437  -0.000021   0.000000   0.000001   0.000065  -0.000291
    11  H    0.000015   0.000000   0.000000   0.000000   0.000003  -0.000005
    12  C   -0.015686  -0.006165  -0.000164   0.000311   0.027082  -0.012444
    13  H    0.001676   0.000050   0.000002   0.000012  -0.000161   0.001564
    14  O    0.000094   0.012836  -0.000351   0.001508  -0.181026   0.060825
    15  H   -0.000020   0.000021  -0.000004  -0.000068   0.006022  -0.004326
    16  C   -0.027953  -0.026710   0.004394  -0.009477  -0.011249   0.001448
    17  H    0.002751   0.000772  -0.000131   0.004053   0.000146  -0.000269
    18  O    0.077163   0.002558  -0.000050   0.000012  -0.000018   0.000016
    19  H    0.651575  -0.000703   0.000012   0.000001   0.000021   0.000022
    20  C   -0.000703   4.868777   0.383283   0.367294   0.284445  -0.053441
    21  H    0.000012   0.383283   0.540000  -0.041811  -0.036864   0.003734
    22  H    0.000001   0.367294  -0.041811   0.635354  -0.038909  -0.002810
    23  O    0.000021   0.284445  -0.036864  -0.038909   8.469942   0.237724
    24  H    0.000022  -0.053441   0.003734  -0.002810   0.237724   0.314440
 Mulliken atomic charges:
              1
     1  C    0.294285
     2  H    0.179008
     3  O   -0.571937
     4  H    0.370078
     5  C    0.064894
     6  H    0.168389
     7  O   -0.524968
     8  C    0.021479
     9  H    0.179266
    10  O   -0.642327
    11  H    0.425705
    12  C    0.042387
    13  H    0.203318
    14  O   -0.643939
    15  H    0.455034
    16  C    0.046544
    17  H    0.191812
    18  O   -0.611147
    19  H    0.349150
    20  C   -0.048162
    21  H    0.177413
    22  H    0.132538
    23  O   -0.697119
    24  H    0.438299
 Sum of Mulliken atomic charges =   0.00000
 Mulliken charges with hydrogens summed into heavy atoms:
              1
     1  C    0.473293
     3  O   -0.201859
     5  C    0.233282
     7  O   -0.524968
     8  C    0.200745
    10  O   -0.216622
    12  C    0.245706
    14  O   -0.188905
    16  C    0.238356
    18  O   -0.261998
    20  C    0.261789
    23  O   -0.258820
 Sum of Mulliken charges with hydrogens summed into heavy atoms =   0.00000
 Electronic spatial extent (au):  <R**2>=         367088.8243
 Charge=              0.0000 electrons
 Dipole moment (field-independent basis, Debye):
    X=             -2.5854    Y=              1.4594    Z=             -1.6413  Tot=              3.3923
 Quadrupole moment (field-independent basis, Debye-Ang):
   XX=             12.8864   YY=            -79.3334   ZZ=             23.9383
   XY=            -22.2367   XZ=            108.8603   YZ=            -33.3084
 Traceless Quadrupole moment (field-independent basis, Debye-Ang):
   XX=             27.0560   YY=            -65.1639   ZZ=             38.1079
   XY=            -22.2367   XZ=            108.8603   YZ=            -33.3084
 Octapole moment (field-independent basis, Debye-Ang**2):
  XXX=           1286.4374  YYY=            247.9767  ZZZ=           1968.1010  XYY=           1248.8970
  XXY=            421.7882  XXZ=          -1079.7062  XZZ=          -3013.2090  YZZ=            774.2667
  YYZ=           2236.5078  XYZ=            479.6359
 Hexadecapole moment (field-independent basis, Debye-Ang**3):
 XXXX=         -60420.0332 YYYY=           -984.9177 ZZZZ=        -189940.5624 XXXY=          -9073.1318
 XXXZ=         -22659.4204 YYYX=          -3936.6937 YYYZ=          -6966.8699 ZZZX=          52096.5789
 ZZZY=         -18753.2161 XXYY=         -19965.3773 XXZZ=          33673.7953 YYZZ=         -63304.3125
 XXYZ=          -9195.0337 YYXZ=         -35136.5004 ZZXY=         -10228.0151
 N-N= 8.798500040067D+02 E-N=-3.369841203635D+03  KE= 6.821346706059D+02
 Calling FoFJK, ICntrl=      2127 FMM=F ISym2X=0 I1Cent= 0 IOpClX= 0 NMat=1 NMatS=1 NMatT=0.
 -------------------------------------------------------------------
 Center     Atomic                   Forces (Hartrees/Bohr)
 Number     Number              X              Y              Z
 -------------------------------------------------------------------
      1        6          -0.032889387   -0.056766939    0.013624171
      2        1           0.002658013    0.001813126   -0.001313851
      3        8           0.012464848   -0.013011577   -0.015566693
      4        1           0.101155505   -0.162574174   -0.086928726
      5        6           0.039317496   -0.032281696   -0.022988403
      6        1           0.003109619    0.003928190   -0.002892191
      7        8           0.015381729    0.037598442    0.000537613
      8        6           0.000259855    0.002770691    0.001073662
      9        1           0.003241822   -0.001825216    0.007843179
     10        8          -0.008989035    0.001558933   -0.002430640
     11        1           0.005096440    0.006910051   -0.001958213
     12        6           0.035182063    0.015538281   -0.040722343
     13        1          -0.001140860   -0.001604343    0.003819336
     14        8          -0.023760878    0.070058469   -0.040384779
     15        1          -0.006130693    0.005605926   -0.002079860
     16        6          -0.030804727    0.012220431    0.051337308
     17        1           0.006597965    0.004051887   -0.004879926
     18        8          -0.017663449    0.024249204    0.025580201
     19        1          -0.096747902    0.159346941    0.079011996
     20        6          -0.025367173   -0.003963067   -0.027233266
     21        1           0.004976948    0.002394236   -0.001923460
     22        1           0.001776091    0.006075804    0.005825172
     23        8           0.014346929   -0.063676379    0.042990561
     24        1          -0.002071220   -0.018417221    0.019659151
 -------------------------------------------------------------------
 Cartesian Forces:  Max     0.162574174 RMS     0.040720396

 GradGradGradGradGradGradGradGradGradGradGradGradGradGradGradGradGradGrad
 Berny optimization.
 Internal  Forces:  Max     0.209039867 RMS     0.022730356
 Search for a local minimum.
 Step number   1 out of a maximum of  144
 All quantities printed in internal units (Hartrees-Bohrs-Radians)
 Mixed Optimization -- RFO/linear search
 Second derivative matrix not updated -- first step.
 ITU=  0
     Eigenvalues ---    0.00867   0.01269   0.01540   0.01563   0.01600
     Eigenvalues ---    0.01644   0.01740   0.02339   0.02795   0.03618
     Eigenvalues ---    0.04065   0.04436   0.05175   0.05382   0.05500
     Eigenvalues ---    0.05868   0.06009   0.06159   0.06567   0.06776
     Eigenvalues ---    0.06897   0.07669   0.08156   0.08400   0.09939
     Eigenvalues ---    0.11274   0.12079   0.13579   0.13816   0.15759
     Eigenvalues ---    0.16000   0.16000   0.16154   0.16756   0.17483
     Eigenvalues ---    0.20560   0.22268   0.22496   0.25521   0.26424
     Eigenvalues ---    0.28586   0.28799   0.30254   0.33143   0.33344
     Eigenvalues ---    0.34045   0.34093   0.34115   0.34342   0.34597
     Eigenvalues ---    0.35572   0.39209   0.41371   0.43770   0.44047
     Eigenvalues ---    0.44902   0.47684   0.48348   0.51633   0.52835
     Eigenvalues ---    0.53001   0.538151000.000001000.000001000.00000
     Eigenvalues --- 1000.000001000.000001000.000001000.000001000.00000
     Eigenvalues --- 1000.000001000.000001000.000001000.000001000.00000
     Eigenvalues --- 1000.000001000.000001000.000001000.000001000.00000
     Eigenvalues --- 1000.000001000.000001000.000001000.000001000.00000
     Eigenvalues --- 1000.000001000.000001000.000001000.000001000.00000
     Eigenvalues --- 1000.000001000.000001000.000001000.000001000.00000
     Eigenvalues --- 1000.000001000.000001000.000001000.000001000.00000
     Eigenvalues --- 1000.000001000.000001000.000001000.000001000.00000
     Eigenvalues --- 1000.000001000.000001000.000001000.000001000.00000
     Eigenvalues --- 1000.000001000.000001000.000001000.000001000.00000
     Eigenvalues --- 1000.000001000.000001000.000001000.000001000.00000
     Eigenvalues --- 1000.000001000.000001000.000001000.000001000.00000
     Eigenvalues --- 1000.000001000.000001000.000001000.000001000.00000
     Eigenvalues --- 1000.000001000.000001000.000001000.000001000.00000
     Eigenvalues --- 1000.000001000.000001000.000001000.00000
 RFO step:  Lambda=-1.29360979D-01 EMin= 8.67044205D-03
 Linear search not attempted -- first point.
 Maximum step size (   0.300) exceeded in Quadratic search.
    -- Step size scaled by   0.594
 Iteration  1 RMS(Cart)=  0.04622986 RMS(Int)=  0.00329889
 Iteration  2 RMS(Cart)=  0.00376734 RMS(Int)=  0.00074467
 Iteration  3 RMS(Cart)=  0.00003017 RMS(Int)=  0.00074451
 Iteration  4 RMS(Cart)=  0.00000023 RMS(Int)=  0.00074451
 Iteration  1 RMS(Cart)=  0.00007226 RMS(Int)=  0.00008350
 Iteration  2 RMS(Cart)=  0.00005188 RMS(Int)=  0.00009007
 Iteration  3 RMS(Cart)=  0.00003817 RMS(Int)=  0.00010181
 Iteration  4 RMS(Cart)=  0.00002882 RMS(Int)=  0.00011337
 Iteration  5 RMS(Cart)=  0.00002237 RMS(Int)=  0.00012352
 Iteration  6 RMS(Cart)=  0.00001786 RMS(Int)=  0.00013226
 Iteration  7 RMS(Cart)=  0.00001465 RMS(Int)=  0.00013980
 Iteration  8 RMS(Cart)=  0.00001231 RMS(Int)=  0.00014636
 Iteration  9 RMS(Cart)=  0.00001057 RMS(Int)=  0.00015214
 Iteration 10 RMS(Cart)=  0.00000923 RMS(Int)=  0.00015727
 Iteration 11 RMS(Cart)=  0.00000816 RMS(Int)=  0.00016186
 Iteration 12 RMS(Cart)=  0.00000728 RMS(Int)=  0.00016599
 Iteration 13 RMS(Cart)=  0.00000654 RMS(Int)=  0.00016971
 Iteration 14 RMS(Cart)=  0.00000590 RMS(Int)=  0.00017309
 Iteration 15 RMS(Cart)=  0.00000535 RMS(Int)=  0.00017615
 Iteration 16 RMS(Cart)=  0.00000486 RMS(Int)=  0.00017893
 Iteration 17 RMS(Cart)=  0.00000442 RMS(Int)=  0.00018145
 Iteration 18 RMS(Cart)=  0.00000403 RMS(Int)=  0.00018375
 Iteration 19 RMS(Cart)=  0.00000368 RMS(Int)=  0.00018583
 Iteration 20 RMS(Cart)=  0.00000336 RMS(Int)=  0.00018773
 Iteration 21 RMS(Cart)=  0.00000307 RMS(Int)=  0.00018946
 Iteration 22 RMS(Cart)=  0.00000282 RMS(Int)=  0.00019103
 Iteration 23 RMS(Cart)=  0.00000258 RMS(Int)=  0.00019245
 Iteration 24 RMS(Cart)=  0.00000237 RMS(Int)=  0.00019375
 Iteration 25 RMS(Cart)=  0.00000218 RMS(Int)=  0.00019493
 Iteration 26 RMS(Cart)=  0.00000200 RMS(Int)=  0.00019601
 Iteration 27 RMS(Cart)=  0.00000184 RMS(Int)=  0.00019698
 Iteration 28 RMS(Cart)=  0.00000170 RMS(Int)=  0.00019787
 Iteration 29 RMS(Cart)=  0.00000157 RMS(Int)=  0.00019868
 Iteration 30 RMS(Cart)=  0.00000145 RMS(Int)=  0.00019941
 Iteration 31 RMS(Cart)=  0.00000134 RMS(Int)=  0.00020008
 Iteration 32 RMS(Cart)=  0.00000124 RMS(Int)=  0.00020069
 Iteration 33 RMS(Cart)=  0.00000115 RMS(Int)=  0.00020124
 Iteration 34 RMS(Cart)=  0.00000107 RMS(Int)=  0.00020175
 Iteration 35 RMS(Cart)=  0.00000099 RMS(Int)=  0.00020221
 Variable       Old X    -DE/DX   Delta X   Delta X   Delta X     New X
                                 (Linear)    (Quad)   (Total)
    R1        2.07173  -0.00093   0.00000  -0.00117  -0.00117   2.07056
    R2        2.60552   0.01265   0.00000   0.01111   0.01110   2.61661
    R3        2.71893  -0.01424   0.00000  -0.00396  -0.00450   2.71443
    R4        2.91784   0.01215   0.00000   0.00902   0.00892   2.92676
    R5        1.84305   0.00130   0.00000   0.00031   0.00114   1.84419
    R6        1.33263   0.20904   0.00000   0.21709   0.21784   1.55047
    R7        2.07255   0.00153   0.00000   0.00193   0.00193   2.07448
    R8        2.84185  -0.00001   0.00000   0.01856   0.01777   2.85962
    R9        2.88396   0.02032   0.00000   0.02817   0.02612   2.91009
   R10        2.87181   0.01281   0.00000   0.01809   0.01685   2.88866
   R11        2.07137   0.00070   0.00000   0.00089   0.00089   2.07226
   R12        2.66398   0.00688   0.00000   0.00717   0.00717   2.67115
   R13        2.93528   0.01399   0.00000   0.00106   0.00096   2.93624
   R14        1.83653  -0.00659   0.00000  -0.00593  -0.00593   1.83060
   R15        2.08452  -0.00337   0.00000  -0.00432  -0.00432   2.08019
   R16        2.65240   0.01294   0.00000   0.01304   0.01378   2.66618
   R17        2.89130   0.01298   0.00000   0.01462   0.01406   2.90536
   R18        1.82901   0.00514   0.00000   0.00458   0.00458   1.83358
   R19        2.32970   0.08519   0.00000   0.14177   0.14382   2.47351
   R20        2.08801  -0.00295   0.00000  -0.00380  -0.00380   2.08421
   R21        2.66630  -0.01202   0.00000  -0.01149  -0.01149   2.65481
   R22        1.82874   0.00935   0.00000   0.00774   0.00860   1.83734
   R23        2.06756  -0.00118   0.00000  -0.00148  -0.00148   2.06607
   R24        2.06334   0.00776   0.00000   0.00969   0.00969   2.07303
   R25        2.66722  -0.01518   0.00000  -0.01594  -0.01576   2.65147
   R26        1.83328   0.05882   0.00000   0.05201   0.05400   1.88727
    A1        1.78843  -0.00985   0.00000  -0.02477  -0.02453   1.76390
    A2        1.76192   0.01180   0.00000  -0.00045  -0.00008   1.76185
    A3        1.82129   0.00948   0.00000  -0.00224  -0.00222   1.81907
    A4        2.12523  -0.01068   0.00000   0.00578   0.00589   2.13112
    A5        2.06952   0.00134   0.00000   0.02297   0.02366   2.09317
    A6        1.84452   0.00264   0.00000  -0.00820  -0.00978   1.83474
    A7        1.91597  -0.00927   0.00000  -0.01423  -0.01440   1.90157
    A8        2.51173  -0.01273   0.00000  -0.02335  -0.02280   2.48893
    A9        1.85181   0.00556   0.00000  -0.00182  -0.00272   1.84909
   A10        1.89208  -0.00257   0.00000  -0.01003  -0.00898   1.88310
   A11        1.87270  -0.00255   0.00000  -0.01156  -0.00986   1.86285
   A12        1.87544   0.01091   0.00000  -0.00815  -0.00720   1.86824
   A13        1.84526  -0.01341   0.00000   0.00861   0.00981   1.85507
   A14        2.11105   0.00264   0.00000   0.02111   0.01716   2.12821
   A15        1.99256   0.02357   0.00000   0.01049   0.01073   2.00329
   A16        1.85241  -0.00524   0.00000  -0.00614  -0.00637   1.84604
   A17        1.92134  -0.00436   0.00000   0.00408   0.00439   1.92573
   A18        1.92925   0.01728   0.00000   0.01153   0.01153   1.94078
   A19        1.90213   0.00808   0.00000   0.01500   0.01495   1.91708
   A20        1.90349  -0.01462   0.00000  -0.00797  -0.00781   1.89569
   A21        1.95225  -0.00155   0.00000  -0.01595  -0.01611   1.93614
   A22        1.85021   0.00986   0.00000   0.02023   0.02023   1.87044
   A23        1.85343   0.01492   0.00000   0.01054   0.01041   1.86384
   A24        2.03033  -0.02406   0.00000  -0.01625  -0.01693   2.01340
   A25        1.87675   0.00805   0.00000  -0.00305  -0.00244   1.87432
   A26        1.92759  -0.00346   0.00000  -0.01442  -0.01371   1.91388
   A27        1.89858  -0.00398   0.00000  -0.00533  -0.00528   1.89330
   A28        1.87366   0.00927   0.00000   0.02845   0.02794   1.90160
   A29        1.87972   0.00275   0.00000   0.00565   0.00565   1.88537
   A30        1.89573   0.00494   0.00000  -0.00472  -0.00620   1.88953
   A31        1.79844   0.01170   0.00000   0.00173   0.00189   1.80033
   A32        2.01343  -0.00215   0.00000   0.02367   0.02446   2.03788
   A33        1.80922   0.01270   0.00000   0.00522   0.00548   1.81470
   A34        2.06612  -0.01235   0.00000   0.00214   0.00215   2.06827
   A35        1.84798  -0.01020   0.00000  -0.03187  -0.03175   1.81623
   A36        1.88291  -0.01580   0.00000  -0.01907  -0.01942   1.86349
   A37        2.60940  -0.01054   0.00000  -0.01441  -0.01425   2.59514
   A38        1.93323  -0.01689   0.00000  -0.03469  -0.03393   1.89929
   A39        1.93137  -0.00759   0.00000  -0.01257  -0.01240   1.91897
   A40        1.88174   0.03731   0.00000   0.06710   0.06428   1.94602
   A41        1.89452   0.00501   0.00000   0.00262   0.00178   1.89630
   A42        1.87528  -0.00527   0.00000  -0.00372  -0.00178   1.87350
   A43        1.94726  -0.01295   0.00000  -0.01927  -0.01891   1.92835
   A44        1.84920  -0.02751   0.00000  -0.05583  -0.05632   1.79288
    D1       -3.06032   0.00247   0.00000  -0.00086  -0.00081  -3.06113
    D2       -1.11507   0.00492   0.00000  -0.01729  -0.01652  -1.13160
    D3        1.23014  -0.00306   0.00000   0.00797   0.00797   1.23811
    D4       -2.98357   0.00983   0.00000   0.00811   0.00791  -2.97566
    D5        1.34066   0.01839   0.00000   0.03707   0.03626   1.37692
    D6       -1.09067   0.02511   0.00000   0.00309   0.00261  -1.08806
    D7        0.83514   0.00242   0.00000   0.00281   0.00274   0.83788
    D8       -1.22082  -0.00192   0.00000  -0.01360  -0.01366  -1.23448
    D9        2.89687  -0.00891   0.00000  -0.00415  -0.00422   2.89264
   D10        2.80998  -0.00253   0.00000  -0.01793  -0.01757   2.79241
   D11        0.75402  -0.00688   0.00000  -0.03434  -0.03396   0.72005
   D12       -1.41148  -0.01386   0.00000  -0.02489  -0.02453  -1.43601
   D13       -1.01477  -0.01487   0.00000   0.00696   0.00697  -1.00780
   D14       -3.07073  -0.01922   0.00000  -0.00945  -0.00942  -3.08016
   D15        1.04696  -0.02620   0.00000   0.00000   0.00001   1.04697
   D16       -0.60505   0.00481   0.00000   0.00159   0.00195  -0.60310
   D17        1.91957   0.00035   0.00000  -0.00268  -0.00248   1.91709
   D18       -1.96362  -0.00065   0.00000   0.01804   0.01698  -1.94663
   D19        0.05756   0.00427   0.00000   0.00177   0.00204   0.05959
   D20        2.33421   0.00571   0.00000   0.02810   0.02500   2.35921
   D21        3.04135  -0.01818   0.00000  -0.01122  -0.01110   3.03025
   D22       -1.33065   0.00295   0.00000  -0.00636  -0.00642  -1.33708
   D23        0.67431  -0.00300   0.00000  -0.03241  -0.03203   0.64228
   D24        1.04696  -0.02891   0.00000   0.00000  -0.00002   1.04695
   D25        2.95814  -0.00778   0.00000   0.00486   0.00466   2.96280
   D26       -1.32008  -0.01373   0.00000  -0.02119  -0.02095  -1.34103
   D27       -1.07056  -0.02211   0.00000  -0.02005  -0.01987  -1.09043
   D28        0.84062  -0.00099   0.00000  -0.01519  -0.01519   0.82543
   D29        2.84559  -0.00693   0.00000  -0.04124  -0.04080   2.80479
   D30       -0.88203   0.00202   0.00000   0.00329   0.00243  -0.87961
   D31        1.21995  -0.00785   0.00000  -0.02463  -0.02452   1.19542
   D32       -2.92929  -0.00432   0.00000  -0.01265  -0.01353  -2.94281
   D33        1.08880   0.00108   0.00000   0.00010  -0.00055   1.08824
   D34       -3.09241  -0.00879   0.00000  -0.02782  -0.02750  -3.11991
   D35       -0.95846  -0.00526   0.00000  -0.01584  -0.01651  -0.97496
   D36       -3.06234   0.00597   0.00000   0.01158   0.01092  -3.05142
   D37       -0.96036  -0.00390   0.00000  -0.01634  -0.01603  -0.97639
   D38        1.17359  -0.00037   0.00000  -0.00436  -0.00503   1.16856
   D39        1.66831  -0.00872   0.00000  -0.00656  -0.00657   1.66173
   D40       -0.35665  -0.00461   0.00000  -0.01007  -0.01010  -0.36674
   D41       -2.46276   0.00927   0.00000   0.00002   0.00006  -2.46270
   D42        2.03008   0.00548   0.00000  -0.00238  -0.00211   2.02797
   D43       -2.10053  -0.00353   0.00000  -0.02385  -0.02310  -2.12363
   D44        0.00000  -0.00119   0.00000   0.00000   0.00000   0.00000
   D45       -2.22288   0.00040   0.00000  -0.00793  -0.00790  -2.23079
   D46       -0.07030  -0.00862   0.00000  -0.02940  -0.02890  -0.09920
   D47        2.03023  -0.00628   0.00000  -0.00555  -0.00580   2.02443
   D48       -0.11756  -0.00028   0.00000  -0.00468  -0.00458  -0.12214
   D49        2.03502  -0.00929   0.00000  -0.02615  -0.02557   2.00945
   D50       -2.14764  -0.00696   0.00000  -0.00230  -0.00247  -2.15011
   D51       -0.98186  -0.00314   0.00000  -0.01033  -0.01055  -0.99241
   D52        1.13175  -0.00364   0.00000  -0.01976  -0.01962   1.11213
   D53       -3.08404  -0.00486   0.00000  -0.01733  -0.01724  -3.10128
   D54       -1.04695   0.03356   0.00000   0.00000  -0.00002  -1.04697
   D55       -2.95083   0.01302   0.00000  -0.00246  -0.00220  -2.95303
   D56        1.29324   0.02338   0.00000   0.03275   0.03260   1.32584
   D57       -3.04716   0.01393   0.00000  -0.00807  -0.00827  -3.05543
   D58        1.33216  -0.00661   0.00000  -0.01053  -0.01046   1.32170
   D59       -0.70696   0.00375   0.00000   0.02468   0.02435  -0.68261
   D60        1.14997   0.01498   0.00000  -0.00410  -0.00484   1.14513
   D61       -0.75390  -0.00556   0.00000  -0.00656  -0.00703  -0.76093
   D62       -2.79302   0.00480   0.00000   0.02865   0.02777  -2.76524
   D63        1.37081  -0.00586   0.00000   0.00528   0.00504   1.37584
   D64       -0.91766   0.00236   0.00000  -0.01638  -0.01584  -0.93350
   D65       -2.93604   0.00080   0.00000  -0.00081  -0.00095  -2.93699
   D66       -1.51761   0.00901   0.00000   0.02296   0.02312  -1.49449
   D67       -0.99164  -0.00895   0.00000  -0.03108  -0.03005  -1.02170
   D68       -3.07608  -0.00633   0.00000  -0.02442  -0.02423  -3.10031
   D69        1.13248  -0.00169   0.00000  -0.01417  -0.01460   1.11788
         Item               Value     Threshold  Converged?
 Maximum Force            0.194864     0.000450     NO 
 RMS     Force            0.021111     0.000300     NO 
 Maximum Displacement     0.300998     0.001800     NO 
 RMS     Displacement     0.046528     0.001200     NO 
 Predicted change in Energy=-6.116371D-02
 GradGradGradGradGradGradGradGradGradGradGradGradGradGradGradGradGradGrad

                          Input orientation:                          
 ---------------------------------------------------------------------
 Center     Atomic      Atomic             Coordinates (Angstroms)
 Number     Number       Type             X           Y           Z
 ---------------------------------------------------------------------
      1          6           0      -14.874361   -1.913227  -29.593936
      2          1           0      -14.879437   -2.868988  -30.129691
      3          8           0      -13.759008   -1.305502  -30.145225
      4          1           0      -13.601796   -0.457544  -29.688455
      5          6           0      -15.129968   -1.274479  -27.206051
      6          1           0      -14.187196   -1.179939  -26.651674
      7          8           0      -14.902259   -2.364623  -28.230574
      8          6           0      -16.282979   -1.324003  -29.853387
      9          1           0      -16.988965   -2.137099  -29.646087
     10          8           0      -16.403981   -0.915532  -31.201172
     11          1           0      -16.816319   -1.646169  -31.685477
     12          6           0      -16.585874   -0.145693  -28.886893
     13          1           0      -16.697615    0.755377  -29.509250
     14          8           0      -17.729374   -0.307558  -28.076461
     15          1           0      -18.491093   -0.457429  -28.658513
     16          6           0      -15.355129    0.035615  -27.983485
     17          1           0      -15.698510    0.734871  -27.202746
     18          8           0      -14.215024    0.656536  -28.520382
     19          1           0      -13.988352    0.172671  -29.332675
     20          6           0      -16.165841   -1.819639  -26.222985
     21          1           0      -15.751617   -2.701631  -25.727146
     22          1           0      -16.393374   -1.063519  -25.461458
     23          8           0      -17.337846   -2.221695  -26.881344
     24          1           0      -17.632600   -1.383484  -27.337335
 ---------------------------------------------------------------------
                    Distance matrix (angstroms):
                    1          2          3          4          5
     1  C    0.000000
     2  H    1.095691   0.000000
     3  O    1.384652   1.923562   0.000000
     4  H    1.935812   2.764438   0.975903   0.000000
     5  C    2.485021   3.339595   3.243337   3.027379   0.000000
     6  H    3.109149   3.927936   3.521932   3.175939   1.097766
     7  O    1.436416   1.965083   2.468733   2.730123   1.513246
     8  C    1.548776   2.105529   2.540854   2.822534   2.887954
     9  H    2.127061   2.284654   3.372434   3.780954   3.186496
    10  O    2.432764   2.699684   2.874541   3.217189   4.208675
    11  H    2.866543   2.768983   3.440288   3.966621   4.800749
    12  C    2.559954   3.445694   3.304501   3.105555   2.493803
    13  H    3.233090   4.102041   3.645147   3.329773   3.447109
    14  O    3.609987   4.347278   4.586882   4.433726   2.906796
    15  H    4.009378   4.585198   5.032114   4.996599   3.751583
    16  C    2.573455   3.642691   3.003217   2.494855   1.539951
    17  H    3.661889   4.714413   4.072219   3.463642   2.088238
    18  O    2.861979   3.932002   2.587983   1.726736   2.508667
    19  H    2.281280   3.268173   1.702302   0.820473   2.814260
    20  C    3.611092   4.244799   4.630458   4.520964   1.528610
    21  H    4.042675   4.491226   5.043717   5.034842   2.147177
    22  H    4.484058   5.229161   5.379230   5.101728   2.164325
    23  O    3.677236   4.124866   4.929544   4.995015   2.424330
    24  H    3.602881   4.193313   4.784876   4.757364   2.508442
                    6          7          8          9         10
     6  H    0.000000
     7  O    2.099455   0.000000
     8  C    3.829364   2.371245   0.000000
     9  H    4.211006   2.531756   1.096592   0.000000
    10  O    5.067739   3.630357   1.413511   2.062212   0.000000
    11  H    5.698142   4.014493   1.935147   2.104739   0.968712
    12  C    3.437954   2.861637   1.553793   2.168999   2.445736
    13  H    4.267715   3.820041   2.148063   2.910331   2.395988
    14  O    3.916388   3.499693   2.506529   2.521736   3.448205
    15  H    4.803431   4.086594   2.656020   2.460280   3.321296
    16  C    2.148339   2.455053   2.491185   3.186589   3.515435
    17  H    2.500849   3.361147   3.406827   3.985398   4.382800
    18  O    2.620207   3.111861   3.158461   4.094674   3.801259
    19  H    3.009461   2.913367   2.788636   3.799598   3.242026
    20  C    2.123211   2.433939   3.665951   3.534960   5.065222
    21  H    2.370171   2.664983   4.382473   4.148232   5.794885
    22  H    2.509460   3.403572   4.401032   4.361012   5.741632
    23  O    3.326349   2.787998   3.278969   2.787953   4.608588
    24  H    3.518859   3.035666   2.855789   2.512476   4.081387
                   11         12         13         14         15
    11  H    0.000000
    12  C    3.183803   0.000000
    13  H    3.243066   1.100791   0.000000
    14  O    3.956077   1.410884   2.060884   0.000000
    15  H    3.657934   1.944016   2.326202   0.970289   0.000000
    16  C    4.320673   1.537450   2.155988   2.400720   3.245463
    17  H    5.197473   2.097417   2.513681   2.444268   3.367397
    18  O    4.699682   2.529591   2.674115   3.671131   4.420946
    19  H    4.103810   2.654656   2.776839   3.975417   4.596324
    20  C    5.503820   3.174103   4.208685   2.857691   3.632384
    21  H    6.144046   4.148832   5.210579   3.893892   4.597182
    22  H    6.265523   3.551489   4.448098   3.032263   3.871555
    23  O    4.866509   2.982864   4.022281   2.290311   2.756981
    24  H    4.431890   2.242520   3.188439   1.308928   1.827594
                   16         17         18         19         20
    16  C    0.000000
    17  H    1.102916   0.000000
    18  O    1.404863   1.985707   0.000000
    19  H    1.925402   2.788782   0.972278   0.000000
    20  C    2.683018   2.775581   3.900662   4.287298   0.000000
    21  H    3.569424   3.740289   4.630396   4.936654   1.093320
    22  H    2.940523   2.597909   4.130474   4.722141   1.097001
    23  O    3.200208   3.395881   4.552217   4.791776   1.403097
    24  H    2.760114   2.871628   4.152241   4.436614   1.892984
                   21         22         23         24
    21  H    0.000000
    22  H    1.779284   0.000000
    23  O    2.019563   2.061425   0.000000
    24  H    2.805052   2.270897   0.998702   0.000000
 Symmetry turned off by external request.
 Stoichiometry    C6H12O6
 Framework group  C1[X(C6H12O6)]
 Deg. of freedom    66
 Full point group                 C1      NOp   1
 Rotational constants (GHZ):      1.2798777      0.8804576      0.7729877
 Standard basis: 6-31G(d) (6D, 7F)
 Integral buffers will be    131072 words long.
 Raffenetti 2 integral format.
 Two-electron integral symmetry is turned off.
   204 basis functions,   384 primitive gaussians,   204 cartesian basis functions
    48 alpha electrons       48 beta electrons
       nuclear repulsion energy       870.9847987795 Hartrees.
 NAtoms=   24 NActive=   24 NUniq=   24 SFac= 1.00D+00 NAtFMM=   50 NAOKFM=F Big=F
 One-electron integrals computed using PRISM.
 NBasis=   204 RedAO= T  NBF=   204
 NBsUse=   204 1.00D-06 NBFU=   204
 Initial guess read from the read-write file.
 B after Tr=     0.000000    0.000000    0.000000
         Rot=    1.000000    0.000000    0.000000    0.000000 Ang=   0.00 deg.
 Harris functional with IExCor= 1009 diagonalized for initial guess.
 ExpMin= 1.61D-01 ExpMax= 5.48D+03 ExpMxC= 8.25D+02 IAcc=1 IRadAn=         1 AccDes= 0.00D+00
 HarFok:  IExCor= 1009 AccDes= 0.00D+00 IRadAn=         1 IDoV= 1
 ScaDFX=  1.000000  1.000000  1.000000  1.000000
 FoFCou: FMM=F IPFlag=           0 FMFlag=      100000 FMFlg1=           0
         NFxFlg=           0 DoJE=T BraDBF=F KetDBF=T FulRan=T
         Omega=  0.000000  0.000000  1.000000  0.000000  0.000000 ICntrl=     500 IOpCl=  0
         NMat0=    1 NMatS0=    1 NMatT0=    0 NMatD0=    1 NMtDS0=    0 NMtDT0=    0
         I1Cent=           4 NGrid=           0.
 Symmetry not used in FoFCou.
 Requested convergence on RMS density matrix=1.00D-08 within  64 cycles.
 Requested convergence on MAX density matrix=1.00D-06.
 Requested convergence on             energy=1.00D-06.
 No special actions if energy rises.
 Keep R1 ints in memory in canonical form, NReq=223266651.
 Integral accuracy reduced to 1.0D-05 until final iterations.
 Initial convergence to 1.0D-05 achieved.  Increase integral accuracy.
 SCF Done:  E(RM062X) =  -686.741919659     A.U. after   13 cycles
             Convg  =    0.7843D-08             -V/T =  2.0073
 QCSCF skips out because SCF is already converged.
 Calling FoFJK, ICntrl=      2127 FMM=F ISym2X=0 I1Cent= 0 IOpClX= 0 NMat=1 NMatS=1 NMatT=0.
 -------------------------------------------------------------------
 Center     Atomic                   Forces (Hartrees/Bohr)
 Number     Number              X              Y              Z
 -------------------------------------------------------------------
      1        6          -0.032641618   -0.057556237    0.009749620
      2        1           0.000653081    0.000586010   -0.000863191
      3        8           0.005608820    0.001209412   -0.001660379
      4        1           0.063761766   -0.097724043   -0.049353036
      5        6           0.035776781   -0.027658468   -0.031503180
      6        1           0.001780963    0.002934534   -0.002459487
      7        8           0.013589798    0.037607814    0.005941526
      8        6           0.002666047    0.007083460   -0.002655876
      9        1           0.003252569   -0.001484867    0.006352949
     10        8          -0.007138820    0.002690779    0.000629381
     11        1           0.003897974    0.003392282   -0.001625736
     12        6           0.031845598    0.010007344   -0.034460989
     13        1          -0.000719143   -0.001178508    0.002155590
     14        8          -0.013023657    0.046223780   -0.029566878
     15        1          -0.001603352    0.002698122    0.000065553
     16        6          -0.040593367    0.009020554    0.057605036
     17        1           0.003044784    0.002351313   -0.002524436
     18        8          -0.010990164    0.006154502    0.006109638
     19        1          -0.056882668    0.098120933    0.044838824
     20        6          -0.017569888   -0.001776446   -0.015795606
     21        1           0.004522402    0.001813068   -0.000592872
     22        1           0.004898114    0.003869453    0.004259426
     23        8           0.006992134   -0.019038410    0.016487970
     24        1          -0.001128154   -0.029346380    0.018866152
 -------------------------------------------------------------------
 Cartesian Forces:  Max     0.098120933 RMS     0.027294225

 GradGradGradGradGradGradGradGradGradGradGradGradGradGradGradGradGradGrad
 Berny optimization.
 Using GEDIIS/GDIIS optimizer.
 Internal  Forces:  Max     0.122469572 RMS     0.013682846
 Search for a local minimum.
 Step number   2 out of a maximum of  144
 All quantities printed in internal units (Hartrees-Bohrs-Radians)
 Mixed Optimization -- RFO/linear search
 Update second derivatives using D2CorX and points    1    2
 DE= -5.67D-02 DEPred=-6.12D-02 R= 9.27D-01
 SS=  1.41D+00  RLast= 3.31D-01 DXNew= 5.0454D-01 9.9378D-01
 Trust test= 9.27D-01 RLast= 3.31D-01 DXMaxT set to 5.05D-01
 ITU=  1  0
 Use linear search instead of GDIIS.
 Linear search step of   0.601 exceeds DXMaxT=   0.505 but not scaled.
 Quartic linear search produced a step of  2.00000.
 Iteration  1 RMS(Cart)=  0.07128366 RMS(Int)=  0.02200520
 Iteration  2 RMS(Cart)=  0.01787937 RMS(Int)=  0.00451759
 Iteration  3 RMS(Cart)=  0.00273695 RMS(Int)=  0.00345264
 Iteration  4 RMS(Cart)=  0.00001655 RMS(Int)=  0.00345263
 Iteration  5 RMS(Cart)=  0.00000068 RMS(Int)=  0.00345263
 Iteration  1 RMS(Cart)=  0.00037734 RMS(Int)=  0.00041447
 Iteration  2 RMS(Cart)=  0.00027407 RMS(Int)=  0.00044830
 Iteration  3 RMS(Cart)=  0.00020250 RMS(Int)=  0.00050916
 Iteration  4 RMS(Cart)=  0.00015232 RMS(Int)=  0.00056870
 Iteration  5 RMS(Cart)=  0.00011679 RMS(Int)=  0.00062028
 Iteration  6 RMS(Cart)=  0.00009144 RMS(Int)=  0.00066369
 Iteration  7 RMS(Cart)=  0.00007319 RMS(Int)=  0.00070014
 Iteration  8 RMS(Cart)=  0.00005990 RMS(Int)=  0.00073101
 Iteration  9 RMS(Cart)=  0.00005007 RMS(Int)=  0.00075743
 Iteration 10 RMS(Cart)=  0.00004263 RMS(Int)=  0.00078028
 Iteration 11 RMS(Cart)=  0.00003686 RMS(Int)=  0.00080026
 Iteration 12 RMS(Cart)=  0.00003226 RMS(Int)=  0.00081786
 Iteration 13 RMS(Cart)=  0.00002849 RMS(Int)=  0.00083348
 Iteration 14 RMS(Cart)=  0.00002533 RMS(Int)=  0.00084741
 Iteration 15 RMS(Cart)=  0.00002263 RMS(Int)=  0.00085988
 Iteration 16 RMS(Cart)=  0.00002028 RMS(Int)=  0.00087109
 Iteration 17 RMS(Cart)=  0.00001822 RMS(Int)=  0.00088118
 Iteration 18 RMS(Cart)=  0.00001640 RMS(Int)=  0.00089029
 Iteration 19 RMS(Cart)=  0.00001477 RMS(Int)=  0.00089851
 Iteration 20 RMS(Cart)=  0.00001332 RMS(Int)=  0.00090594
 Iteration 21 RMS(Cart)=  0.00001202 RMS(Int)=  0.00091266
 Iteration 22 RMS(Cart)=  0.00001085 RMS(Int)=  0.00091874
 Iteration 23 RMS(Cart)=  0.00000980 RMS(Int)=  0.00092425
 Iteration 24 RMS(Cart)=  0.00000885 RMS(Int)=  0.00092922
 Iteration 25 RMS(Cart)=  0.00000799 RMS(Int)=  0.00093373
 Iteration 26 RMS(Cart)=  0.00000722 RMS(Int)=  0.00093781
 Iteration 27 RMS(Cart)=  0.00000653 RMS(Int)=  0.00094150
 Iteration 28 RMS(Cart)=  0.00000590 RMS(Int)=  0.00094483
 Iteration 29 RMS(Cart)=  0.00000534 RMS(Int)=  0.00094785
 Iteration 30 RMS(Cart)=  0.00000483 RMS(Int)=  0.00095058
 Iteration 31 RMS(Cart)=  0.00000436 RMS(Int)=  0.00095305
 Iteration 32 RMS(Cart)=  0.00000395 RMS(Int)=  0.00095528
 Iteration 33 RMS(Cart)=  0.00000357 RMS(Int)=  0.00095730
 Iteration 34 RMS(Cart)=  0.00000323 RMS(Int)=  0.00095912
 Iteration 35 RMS(Cart)=  0.00000293 RMS(Int)=  0.00096077
 Iteration 36 RMS(Cart)=  0.00000265 RMS(Int)=  0.00096226
 Iteration 37 RMS(Cart)=  0.00000240 RMS(Int)=  0.00096361
 Iteration 38 RMS(Cart)=  0.00000217 RMS(Int)=  0.00096483
 Iteration 39 RMS(Cart)=  0.00000197 RMS(Int)=  0.00096593
 Iteration 40 RMS(Cart)=  0.00000179 RMS(Int)=  0.00096692
 Iteration 41 RMS(Cart)=  0.00000162 RMS(Int)=  0.00096782
 Iteration 42 RMS(Cart)=  0.00000147 RMS(Int)=  0.00096863
 Iteration 43 RMS(Cart)=  0.00000133 RMS(Int)=  0.00096936
 Iteration 44 RMS(Cart)=  0.00000121 RMS(Int)=  0.00097002
 Iteration 45 RMS(Cart)=  0.00000110 RMS(Int)=  0.00097062
 Iteration 46 RMS(Cart)=  0.00000100 RMS(Int)=  0.00097116
 Variable       Old X    -DE/DX   Delta X   Delta X   Delta X     New X
                                 (Linear)    (Quad)   (Total)
    R1        2.07056  -0.00009  -0.00235   0.00000  -0.00235   2.06821
    R2        2.61661   0.01000   0.02219   0.00000   0.02178   2.63839
    R3        2.71443  -0.01506  -0.00899   0.00000  -0.01067   2.70376
    R4        2.92676   0.00792   0.01784   0.00000   0.01786   2.94463
    R5        1.84419  -0.00092   0.00227   0.00000   0.00611   1.85030
    R6        1.55047   0.12247   0.43568   0.00000   0.43911   1.98958
    R7        2.07448   0.00054   0.00386   0.00000   0.00386   2.07833
    R8        2.85962  -0.01240   0.03553   0.00000   0.03157   2.89119
    R9        2.91009   0.00371   0.05224   0.00000   0.04251   2.95259
   R10        2.88866  -0.00089   0.03369   0.00000   0.02738   2.91604
   R11        2.07226   0.00021   0.00177   0.00000   0.00177   2.07403
   R12        2.67115   0.00299   0.01433   0.00000   0.01433   2.68548
   R13        2.93624   0.00824   0.00192   0.00000   0.00173   2.93797
   R14        1.83060  -0.00341  -0.01186   0.00000  -0.01186   1.81874
   R15        2.08019  -0.00211  -0.00864   0.00000  -0.00864   2.07155
   R16        2.66618   0.00896   0.02756   0.00000   0.03157   2.69775
   R17        2.90536  -0.00086   0.02812   0.00000   0.02422   2.92958
   R18        1.83358   0.00080   0.00915   0.00000   0.00915   1.84273
   R19        2.47351   0.05486   0.28764   0.00000   0.29677   2.77028
   R20        2.08421  -0.00125  -0.00761   0.00000  -0.00761   2.07660
   R21        2.65481  -0.00535  -0.02298   0.00000  -0.02307   2.63173
   R22        1.83734   0.00209   0.01721   0.00000   0.02134   1.85868
   R23        2.06607  -0.00003  -0.00297   0.00000  -0.00297   2.06311
   R24        2.07303   0.00462   0.01938   0.00000   0.01938   2.09241
   R25        2.65147  -0.00261  -0.03151   0.00000  -0.03041   2.62106
   R26        1.88727   0.02029   0.10799   0.00000   0.11589   2.00317
    A1        1.76390  -0.00282  -0.04906   0.00000  -0.04772   1.71618
    A2        1.76185   0.00864  -0.00015   0.00000   0.00156   1.76340
    A3        1.81907   0.00720  -0.00443   0.00000  -0.00427   1.81480
    A4        2.13112  -0.01168   0.01178   0.00000   0.01195   2.14307
    A5        2.09317  -0.00337   0.04731   0.00000   0.05062   2.14379
    A6        1.83474   0.00701  -0.01955   0.00000  -0.02691   1.80783
    A7        1.90157  -0.00137  -0.02881   0.00000  -0.02991   1.87166
    A8        2.48893  -0.01000  -0.04560   0.00000  -0.04250   2.44643
    A9        1.84909   0.00400  -0.00543   0.00000  -0.00857   1.84053
   A10        1.88310  -0.00272  -0.01797   0.00000  -0.01408   1.86902
   A11        1.86285   0.00516  -0.01971   0.00000  -0.01118   1.85167
   A12        1.86824   0.01402  -0.01440   0.00000  -0.00950   1.85874
   A13        1.85507  -0.01277   0.01961   0.00000   0.02374   1.87881
   A14        2.12821  -0.00643   0.03432   0.00000   0.01634   2.14455
   A15        2.00329   0.01227   0.02146   0.00000   0.02227   2.02556
   A16        1.84604  -0.00523  -0.01273   0.00000  -0.01401   1.83203
   A17        1.92573   0.00039   0.00878   0.00000   0.01056   1.93629
   A18        1.94078   0.00954   0.02306   0.00000   0.02308   1.96387
   A19        1.91708   0.00542   0.02990   0.00000   0.02961   1.94669
   A20        1.89569  -0.00842  -0.01562   0.00000  -0.01471   1.88097
   A21        1.93614  -0.00193  -0.03221   0.00000  -0.03310   1.90304
   A22        1.87044   0.00614   0.04047   0.00000   0.04047   1.91091
   A23        1.86384   0.01026   0.02082   0.00000   0.01994   1.88378
   A24        2.01340  -0.01213  -0.03386   0.00000  -0.03523   1.97817
   A25        1.87432   0.00581  -0.00487   0.00000  -0.00192   1.87240
   A26        1.91388  -0.00233  -0.02741   0.00000  -0.02443   1.88946
   A27        1.89330  -0.00140  -0.01056   0.00000  -0.01015   1.88315
   A28        1.90160   0.00044   0.05588   0.00000   0.05202   1.95362
   A29        1.88537   0.00148   0.01129   0.00000   0.01129   1.89666
   A30        1.88953   0.00761  -0.01240   0.00000  -0.01904   1.87049
   A31        1.80033   0.01099   0.00378   0.00000   0.00509   1.80542
   A32        2.03788  -0.00711   0.04891   0.00000   0.05216   2.09005
   A33        1.81470   0.00691   0.01097   0.00000   0.01161   1.82631
   A34        2.06827  -0.01038   0.00430   0.00000   0.00449   2.07276
   A35        1.81623  -0.00361  -0.06349   0.00000  -0.06275   1.75348
   A36        1.86349  -0.00705  -0.03885   0.00000  -0.04049   1.82299
   A37        2.59514  -0.00927  -0.02851   0.00000  -0.02701   2.56813
   A38        1.89929  -0.00607  -0.06787   0.00000  -0.06334   1.83596
   A39        1.91897  -0.00705  -0.02479   0.00000  -0.02427   1.89470
   A40        1.94602   0.01119   0.12856   0.00000   0.11401   2.06003
   A41        1.89630   0.00167   0.00356   0.00000  -0.00088   1.89543
   A42        1.87350  -0.00177  -0.00355   0.00000   0.00423   1.87773
   A43        1.92835   0.00185  -0.03782   0.00000  -0.03410   1.89424
   A44        1.79288   0.00200  -0.11263   0.00000  -0.11216   1.68072
    D1       -3.06113   0.00144  -0.00162   0.00000  -0.00109  -3.06223
    D2       -1.13160   0.00506  -0.03305   0.00000  -0.02942  -1.16101
    D3        1.23811  -0.00393   0.01594   0.00000   0.01680   1.25491
    D4       -2.97566   0.00695   0.01581   0.00000   0.01508  -2.96059
    D5        1.37692   0.00925   0.07252   0.00000   0.06893   1.44585
    D6       -1.08806   0.01975   0.00521   0.00000   0.00331  -1.08475
    D7        0.83788   0.00233   0.00548   0.00000   0.00531   0.84318
    D8       -1.23448  -0.00129  -0.02731   0.00000  -0.02736  -1.26184
    D9        2.89264  -0.00579  -0.00844   0.00000  -0.00867   2.88398
   D10        2.79241   0.00229  -0.03513   0.00000  -0.03332   2.75909
   D11        0.72005  -0.00133  -0.06793   0.00000  -0.06599   0.65407
   D12       -1.43601  -0.00584  -0.04906   0.00000  -0.04729  -1.48330
   D13       -1.00780  -0.01200   0.01394   0.00000   0.01398  -0.99382
   D14       -3.08016  -0.01562  -0.01885   0.00000  -0.01869  -3.09885
   D15        1.04697  -0.02012   0.00002   0.00000   0.00001   1.04697
   D16       -0.60310   0.00168   0.00389   0.00000   0.00591  -0.59719
   D17        1.91709  -0.00091  -0.00497   0.00000  -0.00416   1.91293
   D18       -1.94663  -0.00199   0.03397   0.00000   0.02950  -1.91713
[...]
     10          8           0      -16.551780   -1.108996  -31.219079
     11          1           0      -15.651490   -1.047996  -31.580085
     12          6           0      -16.595797   -0.221407  -28.936887
     13          1           0      -16.662693    0.650056  -29.607279
     14          8           0      -17.720067   -0.225673  -28.082158
     15          1           0      -18.507624   -0.155736  -28.641329
     16          6           0      -15.325407   -0.079017  -28.099744
     17          1           0      -15.593550    0.672844  -27.334403
     18          8           0      -14.169872    0.418833  -28.735153
     19          1           0      -14.334720    1.341280  -28.978503
     20          6           0      -16.139865   -1.747477  -26.192344
     21          1           0      -15.617236   -2.452713  -25.540204
     22          1           0      -16.374329   -0.853513  -25.591286
     23          8           0      -17.281190   -2.417480  -26.636041
     24          1           0      -17.799643   -1.766105  -27.132218
 ---------------------------------------------------------------------
                    Distance matrix (angstroms):
                    1          2          3          4          5
     1  C    0.000000
     2  H    1.095995   0.000000
     3  O    1.382461   1.936433   0.000000
     4  H    1.938690   2.776392   0.973637   0.000000
     5  C    2.460122   3.311096   3.211250   3.005820   0.000000
     6  H    3.088589   3.909705   3.486188   3.144980   1.099155
     7  O    1.435251   1.959400   2.469871   2.738523   1.489415
     8  C    1.546103   2.100527   2.517574   2.800241   2.887719
     9  H    2.122454   2.275992   3.355447   3.763700   3.186645
    10  O    2.429053   2.694385   2.845979   3.188196   4.203473
    11  H    2.314559   2.571889   2.248112   2.634204   4.350221
    12  C    2.542362   3.430657   3.260310   3.056287   2.492275
    13  H    3.200325   4.073976   3.570972   3.244593   3.438637
    14  O    3.626991   4.372729   4.568524   4.399736   2.942392
    15  H    4.110799   4.727281   5.057040   4.970934   3.839991
    16  C    2.540480   3.609936   2.951251   2.446263   1.531573
    17  H    3.632268   4.684965   4.020421   3.410684   2.079554
    18  O    2.793815   3.861089   2.483818   1.620978   2.487817
    19  H    3.559662   4.617701   3.173656   2.280805   3.284974
    20  C    3.619742   4.259272   4.624498   4.509070   1.533710
    21  H    4.135167   4.632742   5.082148   5.025179   2.110393
    22  H    4.424911   5.188528   5.304793   5.015460   2.153028
    23  O    3.756919   4.152920   5.010004   5.101311   2.487453
    24  H    3.744921   4.228367   4.981006   5.022016   2.709784
                    6          7          8          9         10
     6  H    0.000000
     7  O    2.095518   0.000000
     8  C    3.824870   2.379724   0.000000
     9  H    4.215445   2.538848   1.096091   0.000000
    10  O    5.052515   3.632802   1.409145   2.058316   0.000000
    11  H    5.037339   3.698016   1.918919   2.746498   0.971890
    12  C    3.419400   2.854280   1.552349   2.171520   2.449113
    13  H    4.232201   3.802300   2.134847   2.910267   2.388402
    14  O    3.934448   3.535975   2.531884   2.568232   3.461998
    15  H    4.862397   4.226914   2.758178   2.655378   3.373252
    16  C    2.118458   2.429355   2.479753   3.174753   3.506437
    17  H    2.462440   3.334463   3.399674   3.979005   4.379940
    18  O    2.569647   3.060340   3.123030   4.060552   3.765320
    19  H    3.400935   3.952966   3.586250   4.572116   3.992417
    20  C    2.132896   2.450197   3.689690   3.570244   5.083837
    21  H    2.266760   2.763372   4.503625   4.329244   5.910040
    22  H    2.548746   3.394393   4.311737   4.292550   5.636383
    23  O    3.346008   2.783875   3.478991   2.962442   4.821660
    24  H    3.703020   3.090524   3.081997   2.585119   4.323354
                   11         12         13         14         15
    11  H    0.000000
    12  C    2.925998   0.000000
    13  H    2.792468   1.101521   0.000000
    14  O    4.146170   1.412290   2.052056   0.000000
    15  H    4.194034   1.935652   2.232964   0.968405   0.000000
    16  C    3.627399   1.528062   2.143022   2.399211   3.228886
    17  H    4.581536   2.090966   2.511883   2.426633   3.299459
    18  O    3.527098   2.517084   2.651080   3.666834   4.376645
    19  H    3.769715   2.748852   2.508507   3.836580   4.446107
    20  C    5.454864   3.173213   4.205151   2.895570   3.759980
    21  H    6.201175   4.180163   5.221231   3.980344   4.821558
    22  H    6.035399   3.411986   4.297915   2.899937   3.786898
    23  O    5.382842   3.253674   4.315156   2.662308   3.262025
    24  H    4.991369   2.663113   3.640936   1.811533   2.317745
                   16         17         18         19         20
    16  C    0.000000
    17  H    1.105868   0.000000
    18  O    1.409560   2.013326   0.000000
    19  H    1.941885   2.175896   0.968143   0.000000
    20  C    2.661819   2.731431   3.878099   4.534496   0.000000
    21  H    3.502977   3.604000   4.533028   5.278364   1.093520
    22  H    2.827092   2.444962   4.045046   4.522207   1.102459
    23  O    3.381704   3.589700   4.704385   5.319501   1.395849
    24  H    3.147097   3.294875   4.529746   5.007025   1.907505
                   21         22         23         24
    21  H    0.000000
    22  H    1.770096   0.000000
    23  O    1.992698   2.088038   0.000000
    24  H    2.787264   2.288846   0.969162   0.000000
 Symmetry turned off by external request.
 Stoichiometry    C6H12O6
 Framework group  C1[X(C6H12O6)]
 Deg. of freedom    66
 Full point group                 C1      NOp   1
 Rotational constants (GHZ):      1.2782140      0.8505959      0.7644984

 **********************************************************************

            Population analysis using the SCF density.

 **********************************************************************

 Alpha  occ. eigenvalues --  -19.69837 -19.68485 -19.63997 -19.63748 -19.63595
 Alpha  occ. eigenvalues --  -19.61443 -10.63809 -10.62676 -10.61914 -10.60723
 Alpha  occ. eigenvalues --  -10.59880 -10.59145  -1.21330  -1.18915  -1.17204
 Alpha  occ. eigenvalues --   -1.14179  -1.12970  -1.11131  -0.90120  -0.86221
 Alpha  occ. eigenvalues --   -0.78129  -0.75322  -0.72179  -0.66911  -0.64097
 Alpha  occ. eigenvalues --   -0.63108  -0.61315  -0.58798  -0.56985  -0.56292
 Alpha  occ. eigenvalues --   -0.55280  -0.53215  -0.51775  -0.49704  -0.49421
 Alpha  occ. eigenvalues --   -0.47868  -0.46778  -0.46347  -0.43141  -0.42184
 Alpha  occ. eigenvalues --   -0.40335  -0.39349  -0.38611  -0.37652  -0.35160
 Alpha  occ. eigenvalues --   -0.33808  -0.33224  -0.31422
 Alpha virt. eigenvalues --    0.06848   0.08633   0.13068   0.13792   0.15125
 Alpha virt. eigenvalues --    0.16369   0.17053   0.18083   0.20357   0.21721
 Alpha virt. eigenvalues --    0.22059   0.22649   0.23352   0.24870   0.26529
 Alpha virt. eigenvalues --    0.27077   0.28108   0.29304   0.30461   0.32921
 Alpha virt. eigenvalues --    0.34639   0.37109   0.39458   0.39893   0.56844
 Alpha virt. eigenvalues --    0.57874   0.59793   0.60947   0.61235   0.62487
 Alpha virt. eigenvalues --    0.64004   0.65712   0.66986   0.68221   0.70406
 Alpha virt. eigenvalues --    0.71638   0.75589   0.75714   0.77046   0.80865
 Alpha virt. eigenvalues --    0.82660   0.84455   0.85507   0.87362   0.88424
 Alpha virt. eigenvalues --    0.89869   0.90887   0.92105   0.93098   0.93259
 Alpha virt. eigenvalues --    0.96123   0.96818   0.98313   1.00050   1.00904
 Alpha virt. eigenvalues --    1.02609   1.04714   1.05707   1.06145   1.08714
 Alpha virt. eigenvalues --    1.09634   1.13754   1.14242   1.16492   1.18286
 Alpha virt. eigenvalues --    1.20473   1.22105   1.22943   1.26583   1.28547
 Alpha virt. eigenvalues --    1.29763   1.32303   1.33472   1.35664   1.41370
 Alpha virt. eigenvalues --    1.44972   1.45663   1.50325   1.52809   1.53696
 Alpha virt. eigenvalues --    1.56097   1.59872   1.61872   1.64580   1.66364
 Alpha virt. eigenvalues --    1.67039   1.70132   1.74363   1.74813   1.75901
 Alpha virt. eigenvalues --    1.77510   1.80032   1.80697   1.81191   1.82423
 Alpha virt. eigenvalues --    1.84724   1.85581   1.87509   1.89487   1.91698
 Alpha virt. eigenvalues --    1.93177   1.96337   1.99504   2.02623   2.06935
 Alpha virt. eigenvalues --    2.07913   2.09999   2.12392   2.13478   2.17165
 Alpha virt. eigenvalues --    2.21571   2.25161   2.26011   2.26337   2.29208
 Alpha virt. eigenvalues --    2.30715   2.33559   2.36650   2.37432   2.41081
 Alpha virt. eigenvalues --    2.43711   2.44965   2.47938   2.51161   2.53226
 Alpha virt. eigenvalues --    2.54762   2.55651   2.58384   2.60347   2.63617
 Alpha virt. eigenvalues --    2.66773   2.67333   2.72516   2.76966   2.80745
 Alpha virt. eigenvalues --    2.82990   2.87491   2.91359   2.91991   2.95230
 Alpha virt. eigenvalues --    2.97592   2.99732   3.06763   3.16339   3.77414
 Alpha virt. eigenvalues --    3.85608   3.89283   3.98431   4.04621   4.19723
 Alpha virt. eigenvalues --    4.31767   4.35560   4.57214   4.60464   4.76423
 Alpha virt. eigenvalues --    5.00041
          Condensed to atoms (all electrons):
              1          2          3          4          5          6
     1  C    4.698341   0.415934   0.246385  -0.030238  -0.030075  -0.001384
     2  H    0.415934   0.553476  -0.056588   0.005810   0.006157  -0.000166
     3  O    0.246385  -0.056588   8.364933   0.232967  -0.000062   0.000801
     4  H   -0.030238   0.005810   0.232967   0.291304   0.000703  -0.000372
     5  C   -0.030075   0.006157  -0.000062   0.000703   5.033407   0.363118
     6  H   -0.001384  -0.000166   0.000801  -0.000372   0.363118   0.590305
     7  O    0.205153  -0.043405  -0.039649   0.001226   0.198020  -0.033359
     8  C    0.313304  -0.059179  -0.052002  -0.000432  -0.036058   0.000231
     9  H   -0.026834  -0.009026   0.003360  -0.000164   0.000950   0.000079
    10  O   -0.030675   0.001471  -0.007610   0.000304   0.000352   0.000009
    11  H   -0.013158   0.000128   0.027710   0.000137   0.000012  -0.000001
    12  C   -0.045460   0.006603  -0.003484   0.001221  -0.044328   0.007185
    13  H    0.004318  -0.000233   0.000051  -0.000318   0.005861  -0.000184
    14  O    0.002781  -0.000100  -0.000009  -0.000012   0.002566  -0.000092
    15  H   -0.000010  -0.000001   0.000002   0.000001  -0.000190   0.000010
    16  C   -0.005725  -0.000459   0.010801  -0.010262   0.336547  -0.049584
    17  H    0.000459   0.000020  -0.000197   0.001088  -0.043520  -0.000968
    18  O    0.008259  -0.000050  -0.053564   0.049178  -0.037256  -0.000910
    19  H   -0.000083   0.000002   0.001814  -0.002195   0.005321  -0.000296
    20  C    0.002112  -0.000150  -0.000095   0.000047   0.297501  -0.044128
    21  H   -0.000132   0.000002   0.000000   0.000000  -0.035703  -0.007197
    22  H   -0.000160   0.000005   0.000002   0.000001  -0.059146   0.005694
    23  O   -0.000799   0.000004  -0.000001   0.000000  -0.056236   0.003102
    24  H    0.000099  -0.000010   0.000002   0.000000   0.001887  -0.000204
              7          8          9         10         11         12
     1  C    0.205153   0.313304  -0.026834  -0.030675  -0.013158  -0.045460
     2  H   -0.043405  -0.059179  -0.009026   0.001471   0.000128   0.006603
     3  O   -0.039649  -0.052002   0.003360  -0.007610   0.027710  -0.003484
     4  H    0.001226  -0.000432  -0.000164   0.000304   0.000137   0.001221
     5  C    0.198020  -0.036058   0.000950   0.000352   0.000012  -0.044328
     6  H   -0.033359   0.000231   0.000079   0.000009  -0.000001   0.007185
     7  O    8.382145  -0.051378   0.003143   0.001832   0.000671  -0.003933
     8  C   -0.051378   5.104631   0.366507   0.226616  -0.039284   0.275284
     9  H    0.003143   0.366507   0.567642  -0.038236   0.005905  -0.063080
    10  O    0.001832   0.226616  -0.038236   8.321270   0.242908  -0.060668
    11  H    0.000671  -0.039284   0.005905   0.242908   0.348732   0.000493
    12  C   -0.003933   0.275284  -0.063080  -0.060668   0.000493   5.146070
    13  H   -0.000179  -0.052620   0.004597   0.006956   0.000385   0.361025
    14  O   -0.000528  -0.037286   0.000827   0.001431  -0.000081   0.167144
    15  H   -0.000016  -0.001297   0.002042   0.000476   0.000001  -0.020548
    16  C   -0.051057  -0.037351   0.001637   0.003187  -0.000257   0.292443
    17  H    0.003734   0.006712  -0.000394  -0.000121   0.000008  -0.054587
    18  O    0.000587   0.003190   0.000027  -0.000219   0.000371  -0.045178
    19  H   -0.000148  -0.000326   0.000011   0.000002  -0.000029  -0.001947
    20  C   -0.048708   0.000911  -0.000308  -0.000014   0.000000  -0.007285
    21  H   -0.000846   0.000034  -0.000003   0.000000   0.000000  -0.000191
    22  H    0.003155   0.000115   0.000086   0.000000   0.000000   0.000349
    23  O    0.002085  -0.000050   0.004881   0.000009   0.000000   0.007653
    24  H    0.000229  -0.000139   0.001237  -0.000016   0.000001  -0.004925
             13         14         15         16         17         18
     1  C    0.004318   0.002781  -0.000010  -0.005725   0.000459   0.008259
     2  H   -0.000233  -0.000100  -0.000001  -0.000459   0.000020  -0.000050
     3  O    0.000051  -0.000009   0.000002   0.010801  -0.000197  -0.053564
     4  H   -0.000318  -0.000012   0.000001  -0.010262   0.001088   0.049178
     5  C    0.005861   0.002566  -0.000190   0.336547  -0.043520  -0.037256
     6  H   -0.000184  -0.000092   0.000010  -0.049584  -0.000968  -0.000910
     7  O   -0.000179  -0.000528  -0.000016  -0.051057   0.003734   0.000587
     8  C   -0.052620  -0.037286  -0.001297  -0.037351   0.006712   0.003190
     9  H    0.004597   0.000827   0.002042   0.001637  -0.000394   0.000027
    10  O    0.006956   0.001431   0.000476   0.003187  -0.000121  -0.000219
    11  H    0.000385  -0.000081   0.000001  -0.000257   0.000008   0.000371
    12  C    0.361025   0.167144  -0.020548   0.292443  -0.054587  -0.045178
    13  H    0.595004  -0.029421  -0.005300  -0.039454  -0.005586   0.001132
    14  O   -0.029421   8.331232   0.246028  -0.038869   0.005100   0.001164
    15  H   -0.005300   0.246028   0.332244   0.005587  -0.000321  -0.000082
    16  C   -0.039454  -0.038869   0.005587   5.063925   0.372172   0.172468
    17  H   -0.005586   0.005100  -0.000321   0.372172   0.595074  -0.035729
    18  O    0.001132   0.001164  -0.000082   0.172468  -0.035729   8.364376
    19  H    0.004437  -0.000022  -0.000009  -0.019131  -0.007363   0.246889
    20  C    0.000128   0.003919  -0.000061  -0.026582  -0.001418   0.001734
    21  H    0.000004   0.000079  -0.000007   0.005200  -0.000011  -0.000055
    22  H   -0.000021   0.000676  -0.000015  -0.009543   0.005003  -0.000006
    23  O   -0.000066  -0.028093   0.000961  -0.004582   0.000130  -0.000010
    24  H    0.000662   0.042548  -0.001617   0.000254  -0.000175  -0.000006
             19         20         21         22         23         24
     1  C   -0.000083   0.002112  -0.000132  -0.000160  -0.000799   0.000099
     2  H    0.000002  -0.000150   0.000002   0.000005   0.000004  -0.000010
     3  O    0.001814  -0.000095   0.000000   0.000002  -0.000001   0.000002
     4  H   -0.002195   0.000047   0.000000   0.000001   0.000000   0.000000
     5  C    0.005321   0.297501  -0.035703  -0.059146  -0.056236   0.001887
     6  H   -0.000296  -0.044128  -0.007197   0.005694   0.003102  -0.000204
     7  O   -0.000148  -0.048708  -0.000846   0.003155   0.002085   0.000229
     8  C   -0.000326   0.000911   0.000034   0.000115  -0.000050  -0.000139
     9  H    0.000011  -0.000308  -0.000003   0.000086   0.004881   0.001237
    10  O    0.000002  -0.000014   0.000000   0.000000   0.000009  -0.000016
    11  H   -0.000029   0.000000   0.000000   0.000000   0.000000   0.000001
    12  C   -0.001947  -0.007285  -0.000191   0.000349   0.007653  -0.004925
    13  H    0.004437   0.000128   0.000004  -0.000021  -0.000066   0.000662
    14  O   -0.000022   0.003919   0.000079   0.000676  -0.028093   0.042548
    15  H   -0.000009  -0.000061  -0.000007  -0.000015   0.000961  -0.001617
    16  C   -0.019131  -0.026582   0.005200  -0.009543  -0.004582   0.000254
    17  H   -0.007363  -0.001418  -0.000011   0.005003   0.000130  -0.000175
    18  O    0.246889   0.001734  -0.000055  -0.000006  -0.000010  -0.000006
    19  H    0.329955  -0.000103   0.000004   0.000001   0.000001   0.000003
    20  C   -0.000103   4.865535   0.390462   0.369067   0.283863  -0.039152
    21  H    0.000004   0.390462   0.540387  -0.037542  -0.040291   0.006222
    22  H    0.000001   0.369067  -0.037542   0.625993  -0.033891  -0.006205
    23  O    0.000001   0.283863  -0.040291  -0.033891   8.278930   0.238140
    24  H    0.000003  -0.039152   0.006222  -0.006205   0.238140   0.323193
 Mulliken atomic charges:
              1
     1  C    0.287588
     2  H    0.179755
     3  O   -0.675567
     4  H    0.460007
     5  C    0.090168
     6  H    0.168311
     7  O   -0.528773
     8  C    0.069866
     9  H    0.175114
    10  O   -0.669262
    11  H    0.425348
    12  C    0.090142
    13  H    0.148821
    14  O   -0.670984
    15  H    0.442120
    16  C    0.028632
    17  H    0.160889
    18  O   -0.676310
    19  H    0.443213
    20  C   -0.047273
    21  H    0.179583
    22  H    0.136384
    23  O   -0.655741
    24  H    0.437971
 Sum of Mulliken atomic charges =   0.00000
 Mulliken charges with hydrogens summed into heavy atoms:
              1
     1  C    0.467342
     3  O   -0.215560
     5  C    0.258479
     7  O   -0.528773
     8  C    0.244979
    10  O   -0.243915
    12  C    0.238963
    14  O   -0.228865
    16  C    0.189522
    18  O   -0.233097
    20  C    0.268694
    23  O   -0.217770
 Sum of Mulliken charges with hydrogens summed into heavy atoms =   0.00000
 Electronic spatial extent (au):  <R**2>=         368107.3315
 Charge=              0.0000 electrons
 Dipole moment (field-independent basis, Debye):
    X=             -0.6016    Y=              5.5109    Z=             -0.0035  Tot=              5.5436
 Quadrupole moment (field-independent basis, Debye-Ang):
   XX=            -51.1188   YY=            -80.7197   ZZ=            -74.8183
   XY=            -85.0157   XZ=             20.2191   YZ=           -156.8771
 Traceless Quadrupole moment (field-independent basis, Debye-Ang):
   XX=             17.7668   YY=            -11.8341   ZZ=             -5.9327
   XY=            -85.0157   XZ=             20.2191   YZ=           -156.8771
 Octapole moment (field-independent basis, Debye-Ang**2):
  XXX=           2836.6908  YYY=            289.8332  ZZZ=           6435.5024  XYY=           1281.2676
  XXY=           1409.0272  XXZ=           1365.6364  XZZ=            540.1824  YZZ=           4560.0993
  YYZ=           2289.6225  XYZ=           2406.1622
 Hexadecapole moment (field-independent basis, Debye-Ang**3):
 XXXX=         -93800.9864 YYYY=          -1138.1925 ZZZZ=        -369701.6796 XXXY=         -24827.2426
 XXXZ=         -78706.3666 YYYX=          -4589.2241 YYYZ=          -8183.3758 ZZZX=         -81940.2123
 ZZZY=        -135188.9116 XXYY=         -20653.8543 XXZZ=         -55954.5745 YYZZ=         -65307.2765
 XXYZ=         -39675.6299 YYXZ=         -36284.2502 ZZXY=         -69615.9656
 N-N= 8.650426274264D+02 E-N=-3.340802711388D+03  KE= 6.814983397991D+02


 Happiness is a conscious choice, not an automatic response.
 -- Mildred Barthel
 Error termination request processed by link 9999.
 Error termination via Lnk1e in /projects/nrel/apps/gaussian/g09/B.01/g09/l9999.exe at Tue Jul 17 01:10:22 2012.
 Job cpu time:  0 days 15 hours  3 minutes 10.5 seconds.
 File lengths (MBytes):  RWF=     27 Int=      0 D2E=      0 Chk=      4 Scr=      1
