 Entering Gaussian System, Link 0=g09
 Initial command:
 /opt/gaussian//g09/l1.exe /scratch/g09/Gau-28619.inp -scrdir=/scratch/g09/
 Entering Link 1 = /opt/gaussian//g09/l1.exe PID=     28620.
  
 Copyright (c) 1988,1990,1992,1993,1995,1998,2003,2009,2010,
            Gaussian, Inc.  All Rights Reserved.
  
 This is part of the Gaussian(R) 09 program.  It is based on
 the Gaussian(R) 03 system (copyright 2003, Gaussian, Inc.),
 the Gaussian(R) 98 system (copyright 1998, Gaussian, Inc.),
 the Gaussian(R) 94 system (copyright 1995, Gaussian, Inc.),
 the Gaussian 92(TM) system (copyright 1992, Gaussian, Inc.),
 the Gaussian 90(TM) system (copyright 1990, Gaussian, Inc.),
 the Gaussian 88(TM) system (copyright 1988, Gaussian, Inc.),
 the Gaussian 86(TM) system (copyright 1986, Carnegie Mellon
 University), and the Gaussian 82(TM) system (copyright 1983,
 Carnegie Mellon University). Gaussian is a federally registered
 trademark of Gaussian, Inc.
  
 This software contains proprietary and confidential information,
 including trade secrets, belonging to Gaussian, Inc.
  
 This software is provided under written license and may be
 used, copied, transmitted, or stored only in accord with that
 written license.
  
 The following legend is applicable only to US Government
 contracts under FAR:
  
                    RESTRICTED RIGHTS LEGEND
  
 Use, reproduction and disclosure by the US Government is
 subject to restrictions as set forth in subparagraphs (a)
 and (c) of the Commercial Computer Software - Restricted
 Rights clause in FAR 52.227-19.
  
 Gaussian, Inc.
 340 Quinnipiac St., Bldg. 40, Wallingford CT 06492
  
  
 ---------------------------------------------------------------
 Warning -- This program may not be used in any manner that
 competes with the business of Gaussian, Inc. or will provide
 assistance to any competitor of Gaussian, Inc.  The licensee
 of this program is prohibited from giving any competitor of
 Gaussian, Inc. access to this program.  By using this program,
 the user acknowledges that Gaussian, Inc. is engaged in the
 business of creating and licensing software in the field of
 computational chemistry and represents and warrants to the
 licensee that it is not a competitor of Gaussian, Inc. and that
 it will not use this program in any manner prohibited above.
 ---------------------------------------------------------------
  

 Cite this work as:
 Gaussian 09, Revision B.01,
 M. J. Frisch, G. W. Trucks, H. B. Schlegel, G. E. Scuseria, 
 M. A. Robb, J. R. Cheeseman, G. Scalmani, V. Barone, B. Mennucci, 
 G. A. Petersson, H. Nakatsuji, M. Caricato, X. Li, H. P. Hratchian, 
 A. F. Izmaylov, J. Bloino, G. Zheng, J. L. Sonnenberg, M. Hada, 
 M. Ehara, K. Toyota, R. Fukuda, J. Hasegawa, M. Ishida, T. Nakajima, 
 Y. Honda, O. Kitao, H. Nakai, T. Vreven, J. A. Montgomery, Jr., 
 J. E. Peralta, F. Ogliaro, M. Bearpark, J. J. Heyd, E. Brothers, 
 K. N. Kudin, V. N. Staroverov, T. Keith, R. Kobayashi, J. Normand, 
 K. Raghavachari, A. Rendell, J. C. Burant, S. S. Iyengar, J. Tomasi, 
 M. Cossi, N. Rega, J. M. Millam, M. Klene, J. E. Knox, J. B. Cross, 
 V. Bakken, C. Adamo, J. Jaramillo, R. Gomperts, R. E. Stratmann, 
 O. Yazyev, A. J. Austin, R. Cammi, C. Pomelli, J. W. Ochterski, 
 R. L. Martin, K. Morokuma, V. G. Zakrzewski, G. A. Voth, 
 P. Salvador, J. J. Dannenberg, S. Dapprich, A. D. Daniels, 
 O. Farkas, J. B. Foresman, J. V. Ortiz, J. Cioslowski, 
 and D. J. Fox, Gaussian, Inc., Wallingford CT, 2010.
 
 ******************************************
 Gaussian 09:  EM64L-G09RevB.01 12-Aug-2010
                 1-Jul-2011 
 ******************************************
 %chk=gaussian/levoprop/GL_THF_rev4.chk
 %mem=15GB
 %nproc=8
 Will use up to    8 processors via shared memory.
 ---------------------------------------------------------------
 # opt freq=noraman b3lyp/6-31g(2df,p) scrf=(solvent=thf) nosymm
 ---------------------------------------------------------------
 1/14=-1,18=20,19=15,26=3,38=1/1,3;
 2/9=110,12=2,15=1,17=6,18=5,40=1/2;
 3/5=1,6=6,7=104,11=2,16=1,25=1,30=1,70=2201,71=1,72=20,74=-5/1,2,3;
 4//1;
 5/5=2,38=5,53=20/2;
 6/7=2,8=2,9=2,10=2,28=1/1;
 7/30=1/1,2,3,16;
 1/14=-1,18=20,19=15/3(2);
 2/9=110,15=1/2;
 99//99;
 2/9=110,15=1/2;
 3/5=1,6=6,7=104,11=2,16=1,25=1,30=1,70=2205,71=1,72=20,74=-5/1,2,3;
 4/5=5,16=3/1;
 5/5=2,38=5,53=20/2;
 7/30=1/1,2,3,16;
 1/14=-1,18=20,19=15/3(-5);
 2/9=110,15=1/2;
 6/7=2,8=2,9=2,10=2,19=2,28=1/1;
 99/9=1/99;
 -------------------------------------------------
 GL_THF_rev4 from GL_THF_rev3_d9.log step -63.3189
 -------------------------------------------------
 Symbolic Z-matrix:
 Charge =  0 Multiplicity = 1
 8                     0.92753  -0.46009   4.14711 
 8                     3.31829  -1.90608   3.37928 
 8                     2.59372   1.96122   2.69844 
 8                     1.24859   1.20483   1.0517 
 6                     1.43996   1.17952   2.46049 
 6                     1.66184  -0.27038   2.94881 
 6                     3.15556  -0.51402   3.19648 
 6                     4.02339   0.0809    2.07097 
 6                     3.47872   1.47656   1.67908 
 6                     2.53335   1.44895   0.46527 
 1                     1.19094  -1.32136   4.49401 
 1                     4.25823  -2.07122   3.56444 
 1                     0.58347   1.63531   2.96183 
 1                     1.30868  -0.95487   2.16556 
 1                     3.4013    0.03658   4.11578 
 1                     4.01669  -0.59351   1.20584 
 1                     4.30542   2.17839   1.57418 
 1                     2.77542   0.66318  -0.25611 
 1                     2.52232   2.41642  -0.04733 
 1                     10.02034  -0.59934   1.724 
 8                     9.99798  -0.89965   2.643 
 6                     8.66917  -1.33503   2.86555 
 8                     9.0311   -2.55894   4.97189 
 6                     10.40896  -2.39572   5.27426 
 6                     8.40686  -1.43688   4.37156 
 1                     8.78675  -0.51146   4.82861 
 6                     6.89125  -1.57376   4.66789 
 1                     6.76592  -2.51971   5.20013 
 1                     6.86733  -0.4995    6.51404 
 6                     6.33251  -0.46186   5.5587 
 8                     6.50688   0.84533   5.04206 
 1                     5.93857   0.92758   4.26113 
 1                     5.27386  -0.67652   5.76316 
 8                     6.10158  -1.75972   3.46838 
 6                     6.25384  -0.85521   2.3894 
 1                     7.77315   0.61208   2.81791 
 6                     7.68816  -0.32943   2.26412 
 8                     8.04626  -0.14387   0.9012 
 1                     7.77557   0.73916   0.63011 
 8                     5.39079   0.2609    2.48445 
 1                     5.9984   -1.43492   1.49549 
 1                     8.50319  -2.32459   2.41169 
 1                     10.57584  -1.50016   5.89034 
 1                     10.70971  -3.27824   5.8443 
 1                     11.02163  -2.31601   4.37096 
 

 GradGradGradGradGradGradGradGradGradGradGradGradGradGradGradGradGradGrad
 Berny optimization.
 Initialization pass.
                           ----------------------------
                           !    Initial Parameters    !
                           ! (Angstroms and Degrees)  !
 --------------------------                            --------------------------
 ! Name  Definition              Value          Derivative Info.                !
 --------------------------------------------------------------------------------
 ! R1    R(1,6)                  1.4181         estimate D2E/DX2                !
 ! R2    R(1,11)                 0.9651         estimate D2E/DX2                !
 ! R3    R(2,7)                  1.4134         estimate D2E/DX2                !
 ! R4    R(2,12)                 0.9721         estimate D2E/DX2                !
 ! R5    R(3,5)                  1.4138         estimate D2E/DX2                !
 ! R6    R(3,9)                  1.4343         estimate D2E/DX2                !
 ! R7    R(4,5)                  1.4219         estimate D2E/DX2                !
 ! R8    R(4,10)                 1.4332         estimate D2E/DX2                !
 ! R9    R(5,6)                  1.5459         estimate D2E/DX2                !
 ! R10   R(5,13)                 1.0921         estimate D2E/DX2                !
 ! R11   R(6,7)                  1.5336         estimate D2E/DX2                !
 ! R12   R(6,14)                 1.0985         estimate D2E/DX2                !
 ! R13   R(7,8)                  1.5407         estimate D2E/DX2                !
 ! R14   R(7,15)                 1.0994         estimate D2E/DX2                !
 ! R15   R(8,9)                  1.5486         estimate D2E/DX2                !
 ! R16   R(8,16)                 1.097          estimate D2E/DX2                !
 ! R17   R(8,40)                 1.4398         estimate D2E/DX2                !
 ! R18   R(9,10)                 1.5388         estimate D2E/DX2                !
 ! R19   R(9,17)                 1.0895         estimate D2E/DX2                !
 ! R20   R(10,18)                1.0938         estimate D2E/DX2                !
 ! R21   R(10,19)                1.0949         estimate D2E/DX2                !
 ! R22   R(12,34)                1.872          estimate D2E/DX2                !
 ! R23   R(20,21)                0.9671         estimate D2E/DX2                !
 ! R24   R(21,22)                1.4159         estimate D2E/DX2                !
 ! R25   R(22,25)                1.5321         estimate D2E/DX2                !
 ! R26   R(22,37)                1.5282         estimate D2E/DX2                !
 ! R27   R(22,42)                1.1013         estimate D2E/DX2                !
 ! R28   R(23,24)                1.4201         estimate D2E/DX2                !
 ! R29   R(23,25)                1.4174         estimate D2E/DX2                !
 ! R30   R(24,43)                1.0997         estimate D2E/DX2                !
 ! R31   R(24,44)                1.0928         estimate D2E/DX2                !
 ! R32   R(24,45)                1.0944         estimate D2E/DX2                !
 ! R33   R(25,26)                1.0998         estimate D2E/DX2                !
 ! R34   R(25,27)                1.5504         estimate D2E/DX2                !
 ! R35   R(27,28)                1.0926         estimate D2E/DX2                !
 ! R36   R(27,30)                1.5304         estimate D2E/DX2                !
 ! R37   R(27,34)                1.4481         estimate D2E/DX2                !
 ! R38   R(29,30)                1.0955         estimate D2E/DX2                !
 ! R39   R(30,31)                1.4164         estimate D2E/DX2                !
 ! R40   R(30,33)                1.0994         estimate D2E/DX2                !
 ! R41   R(31,32)                0.9693         estimate D2E/DX2                !
 ! R42   R(34,35)                1.4162         estimate D2E/DX2                !
 ! R43   R(35,37)                1.5328         estimate D2E/DX2                !
 ! R44   R(35,40)                1.4141         estimate D2E/DX2                !
 ! R45   R(35,41)                1.0956         estimate D2E/DX2                !
 ! R46   R(36,37)                1.0956         estimate D2E/DX2                !
 ! R47   R(37,38)                1.4213         estimate D2E/DX2                !
 ! R48   R(38,39)                0.9625         estimate D2E/DX2                !
 ! A1    A(6,1,11)             106.3662         estimate D2E/DX2                !
 ! A2    A(7,2,12)             107.6533         estimate D2E/DX2                !
 ! A3    A(5,3,9)              101.3668         estimate D2E/DX2                !
 ! A4    A(5,4,10)             106.7249         estimate D2E/DX2                !
 ! A5    A(3,5,4)              105.4701         estimate D2E/DX2                !
 ! A6    A(3,5,6)              110.3814         estimate D2E/DX2                !
 ! A7    A(3,5,13)             109.3897         estimate D2E/DX2                !
 ! A8    A(4,5,6)              110.4241         estimate D2E/DX2                !
 ! A9    A(4,5,13)             109.9892         estimate D2E/DX2                !
 ! A10   A(6,5,13)             111.0376         estimate D2E/DX2                !
 ! A11   A(1,6,5)              108.5459         estimate D2E/DX2                !
 ! A12   A(1,6,7)              110.2809         estimate D2E/DX2                !
 ! A13   A(1,6,14)             110.6501         estimate D2E/DX2                !
 ! A14   A(5,6,7)              109.8651         estimate D2E/DX2                !
 ! A15   A(5,6,14)             108.2423         estimate D2E/DX2                !
 ! A16   A(7,6,14)             109.2248         estimate D2E/DX2                !
 ! A17   A(2,7,6)              106.8276         estimate D2E/DX2                !
 ! A18   A(2,7,8)              114.2003         estimate D2E/DX2                !
 ! A19   A(2,7,15)             111.0618         estimate D2E/DX2                !
 ! A20   A(6,7,8)              111.6727         estimate D2E/DX2                !
 ! A21   A(6,7,15)             105.8538         estimate D2E/DX2                !
 ! A22   A(8,7,15)             106.9513         estimate D2E/DX2                !
 ! A23   A(7,8,9)              109.557          estimate D2E/DX2                !
 ! A24   A(7,8,16)             109.5902         estimate D2E/DX2                !
 ! A25   A(7,8,40)             111.9262         estimate D2E/DX2                !
 ! A26   A(9,8,16)             110.6314         estimate D2E/DX2                !
 ! A27   A(9,8,40)             107.0996         estimate D2E/DX2                !
 ! A28   A(16,8,40)            108.0078         estimate D2E/DX2                !
 ! A29   A(3,9,8)              109.981          estimate D2E/DX2                !
 ! A30   A(3,9,10)             100.8129         estimate D2E/DX2                !
 ! A31   A(3,9,17)             108.5994         estimate D2E/DX2                !
 ! A32   A(8,9,10)             113.5491         estimate D2E/DX2                !
 ! A33   A(8,9,17)             109.7575         estimate D2E/DX2                !
 ! A34   A(10,9,17)            113.6901         estimate D2E/DX2                !
 ! A35   A(4,10,9)             103.357          estimate D2E/DX2                !
 ! A36   A(4,10,18)            110.2353         estimate D2E/DX2                !
 ! A37   A(4,10,19)            109.4526         estimate D2E/DX2                !
 ! A38   A(9,10,18)            113.4006         estimate D2E/DX2                !
 ! A39   A(9,10,19)            111.0769         estimate D2E/DX2                !
 ! A40   A(18,10,19)           109.1618         estimate D2E/DX2                !
 ! A41   A(20,21,22)           105.4595         estimate D2E/DX2                !
 ! A42   A(21,22,25)           109.6104         estimate D2E/DX2                !
 ! A43   A(21,22,37)           109.7706         estimate D2E/DX2                !
 ! A44   A(21,22,42)           110.6693         estimate D2E/DX2                !
 ! A45   A(25,22,37)           108.7055         estimate D2E/DX2                !
 ! A46   A(25,22,42)           108.6373         estimate D2E/DX2                !
 ! A47   A(37,22,42)           109.4111         estimate D2E/DX2                !
 ! A48   A(24,23,25)           115.2463         estimate D2E/DX2                !
 ! A49   A(23,24,43)           111.1075         estimate D2E/DX2                !
 ! A50   A(23,24,44)           106.5752         estimate D2E/DX2                !
 ! A51   A(23,24,45)           112.0749         estimate D2E/DX2                !
 ! A52   A(43,24,44)           108.8844         estimate D2E/DX2                !
 ! A53   A(43,24,45)           108.5497         estimate D2E/DX2                !
 ! A54   A(44,24,45)           109.5905         estimate D2E/DX2                !
 ! A55   A(22,25,23)           113.176          estimate D2E/DX2                !
 ! A56   A(22,25,26)           107.0631         estimate D2E/DX2                !
 ! A57   A(22,25,27)           111.1691         estimate D2E/DX2                !
 ! A58   A(23,25,26)           109.7531         estimate D2E/DX2                !
 ! A59   A(23,25,27)           106.2417         estimate D2E/DX2                !
 ! A60   A(26,25,27)           109.4216         estimate D2E/DX2                !
 ! A61   A(25,27,28)           106.3608         estimate D2E/DX2                !
 ! A62   A(25,27,30)           113.8304         estimate D2E/DX2                !
 ! A63   A(25,27,34)           112.7128         estimate D2E/DX2                !
 ! A64   A(28,27,30)           107.6736         estimate D2E/DX2                !
 ! A65   A(28,27,34)           103.2833         estimate D2E/DX2                !
 ! A66   A(30,27,34)           112.1086         estimate D2E/DX2                !
 ! A67   A(27,30,29)           107.7218         estimate D2E/DX2                !
 ! A68   A(27,30,31)           114.4109         estimate D2E/DX2                !
 ! A69   A(27,30,33)           108.5401         estimate D2E/DX2                !
 ! A70   A(29,30,31)           106.8408         estimate D2E/DX2                !
 ! A71   A(29,30,33)           107.5311         estimate D2E/DX2                !
 ! A72   A(31,30,33)           111.5059         estimate D2E/DX2                !
 ! A73   A(30,31,32)           107.4578         estimate D2E/DX2                !
 ! A74   A(27,34,35)           119.3703         estimate D2E/DX2                !
 ! A75   A(34,35,37)           112.4562         estimate D2E/DX2                !
 ! A76   A(34,35,40)           112.7858         estimate D2E/DX2                !
 ! A77   A(34,35,41)           104.9875         estimate D2E/DX2                !
 ! A78   A(37,35,40)           107.8114         estimate D2E/DX2                !
 ! A79   A(37,35,41)           109.4498         estimate D2E/DX2                !
 ! A80   A(40,35,41)           109.2789         estimate D2E/DX2                !
 ! A81   A(22,37,35)           110.0492         estimate D2E/DX2                !
 ! A82   A(22,37,36)           108.4671         estimate D2E/DX2                !
 ! A83   A(22,37,38)           107.5509         estimate D2E/DX2                !
 ! A84   A(35,37,36)           109.0296         estimate D2E/DX2                !
 ! A85   A(35,37,38)           111.0339         estimate D2E/DX2                !
 ! A86   A(36,37,38)           110.6674         estimate D2E/DX2                !
 ! A87   A(37,38,39)           108.6011         estimate D2E/DX2                !
 ! A88   A(8,40,35)            117.494          estimate D2E/DX2                !
 ! D1    D(11,1,6,5)          -171.655          estimate D2E/DX2                !
 ! D2    D(11,1,6,7)           -51.2518         estimate D2E/DX2                !
 ! D3    D(11,1,6,14)           69.7061         estimate D2E/DX2                !
 ! D4    D(12,2,7,6)          -178.2994         estimate D2E/DX2                !
 ! D5    D(12,2,7,8)            57.7191         estimate D2E/DX2                !
 ! D6    D(12,2,7,15)          -63.3189         estimate D2E/DX2                !
 ! D7    D(9,3,5,4)            -45.0412         estimate D2E/DX2                !
 ! D8    D(9,3,5,6)             74.2397         estimate D2E/DX2                !
 ! D9    D(9,3,5,13)          -163.2983         estimate D2E/DX2                !
 ! D10   D(5,3,9,8)            -75.1571         estimate D2E/DX2                !
 ! D11   D(5,3,9,10)            44.9921         estimate D2E/DX2                !
 ! D12   D(5,3,9,17)           164.7191         estimate D2E/DX2                !
 ! D13   D(10,4,5,3)            25.4246         estimate D2E/DX2                !
 ! D14   D(10,4,5,6)           -93.828          estimate D2E/DX2                !
 ! D15   D(10,4,5,13)          143.2791         estimate D2E/DX2                !
 ! D16   D(5,4,10,9)             3.175          estimate D2E/DX2                !
 ! D17   D(5,4,10,18)          124.6804         estimate D2E/DX2                !
 ! D18   D(5,4,10,19)         -115.2402         estimate D2E/DX2                !
 ! D19   D(3,5,6,1)            105.9043         estimate D2E/DX2                !
 ! D20   D(3,5,6,7)            -14.7564         estimate D2E/DX2                !
 ! D21   D(3,5,6,14)          -133.9475         estimate D2E/DX2                !
 ! D22   D(4,5,6,1)           -137.865          estimate D2E/DX2                !
 ! D23   D(4,5,6,7)            101.4742         estimate D2E/DX2                !
 ! D24   D(4,5,6,14)           -17.7168         estimate D2E/DX2                !
 ! D25   D(13,5,6,1)           -15.5858         estimate D2E/DX2                !
 ! D26   D(13,5,6,7)          -136.2465         estimate D2E/DX2                !
 ! D27   D(13,5,6,14)          104.5624         estimate D2E/DX2                !
 ! D28   D(1,6,7,2)             71.7093         estimate D2E/DX2                !
 ! D29   D(1,6,7,8)           -162.7674         estimate D2E/DX2                !
 ! D30   D(1,6,7,15)           -46.7274         estimate D2E/DX2                !
 ! D31   D(5,6,7,2)           -168.6834         estimate D2E/DX2                !
 ! D32   D(5,6,7,8)            -43.1601         estimate D2E/DX2                !
 ! D33   D(5,6,7,15)            72.8799         estimate D2E/DX2                !
 ! D34   D(14,6,7,2)           -50.0962         estimate D2E/DX2                !
 ! D35   D(14,6,7,8)            75.4271         estimate D2E/DX2                !
 ! D36   D(14,6,7,15)         -168.5329         estimate D2E/DX2                !
 ! D37   D(2,7,8,9)            163.3913         estimate D2E/DX2                !
 ! D38   D(2,7,8,16)            41.8355         estimate D2E/DX2                !
 ! D39   D(2,7,8,40)           -77.9651         estimate D2E/DX2                !
 ! D40   D(6,7,8,9)             42.0504         estimate D2E/DX2                !
 ! D41   D(6,7,8,16)           -79.5053         estimate D2E/DX2                !
 ! D42   D(6,7,8,40)           160.694          estimate D2E/DX2                !
 ! D43   D(15,7,8,9)           -73.3185         estimate D2E/DX2                !
 ! D44   D(15,7,8,16)          165.1258         estimate D2E/DX2                !
 ! D45   D(15,7,8,40)           45.3251         estimate D2E/DX2                !
 ! D46   D(7,8,9,3)             16.1514         estimate D2E/DX2                !
 ! D47   D(7,8,9,10)           -95.9482         estimate D2E/DX2                !
 ! D48   D(7,8,9,17)           135.5711         estimate D2E/DX2                !
 ! D49   D(16,8,9,3)           137.0787         estimate D2E/DX2                !
 ! D50   D(16,8,9,10)           24.979          estimate D2E/DX2                !
 ! D51   D(16,8,9,17)         -103.5017         estimate D2E/DX2                !
 ! D52   D(40,8,9,3)          -105.4417         estimate D2E/DX2                !
 ! D53   D(40,8,9,10)          142.4587         estimate D2E/DX2                !
 ! D54   D(40,8,9,17)           13.978          estimate D2E/DX2                !
 ! D55   D(7,8,40,35)           84.1221         estimate D2E/DX2                !
 ! D56   D(9,8,40,35)         -155.7875         estimate D2E/DX2                !
 ! D57   D(16,8,40,35)         -36.6018         estimate D2E/DX2                !
 ! D58   D(3,9,10,4)           -29.7521         estimate D2E/DX2                !
 ! D59   D(3,9,10,18)         -149.0997         estimate D2E/DX2                !
 ! D60   D(3,9,10,19)           87.5278         estimate D2E/DX2                !
 ! D61   D(8,9,10,4)            87.8113         estimate D2E/DX2                !
 ! D62   D(8,9,10,18)          -31.5363         estimate D2E/DX2                !
 ! D63   D(8,9,10,19)         -154.9088         estimate D2E/DX2                !
 ! D64   D(17,9,10,4)         -145.7537         estimate D2E/DX2                !
 ! D65   D(17,9,10,18)          94.8987         estimate D2E/DX2                !
 ! D66   D(17,9,10,19)         -28.4738         estimate D2E/DX2                !
 ! D67   D(20,21,22,25)       -163.2207         estimate D2E/DX2                !
 ! D68   D(20,21,22,37)        -43.8905         estimate D2E/DX2                !
 ! D69   D(20,21,22,42)         76.9772         estimate D2E/DX2                !
 ! D70   D(21,22,25,23)        -74.2262         estimate D2E/DX2                !
 ! D71   D(21,22,25,26)         46.8357         estimate D2E/DX2                !
 ! D72   D(21,22,25,27)        166.2987         estimate D2E/DX2                !
 ! D73   D(37,22,25,23)        165.7908         estimate D2E/DX2                !
 ! D74   D(37,22,25,26)        -73.1473         estimate D2E/DX2                !
 ! D75   D(37,22,25,27)         46.3157         estimate D2E/DX2                !
 ! D76   D(42,22,25,23)         46.8119         estimate D2E/DX2                !
 ! D77   D(42,22,25,26)        167.8738         estimate D2E/DX2                !
 ! D78   D(42,22,25,27)        -72.6632         estimate D2E/DX2                !
 ! D79   D(21,22,37,35)        174.9225         estimate D2E/DX2                !
 ! D80   D(21,22,37,36)        -65.8807         estimate D2E/DX2                !
 ! D81   D(21,22,37,38)         53.8481         estimate D2E/DX2                !
 ! D82   D(25,22,37,35)        -65.194          estimate D2E/DX2                !
 ! D83   D(25,22,37,36)         54.0027         estimate D2E/DX2                !
 ! D84   D(25,22,37,38)        173.7315         estimate D2E/DX2                !
 ! D85   D(42,22,37,35)         53.2983         estimate D2E/DX2                !
 ! D86   D(42,22,37,36)        172.4951         estimate D2E/DX2                !
 ! D87   D(42,22,37,38)        -67.7761         estimate D2E/DX2                !
 ! D88   D(25,23,24,43)         54.1531         estimate D2E/DX2                !
 ! D89   D(25,23,24,44)        172.6346         estimate D2E/DX2                !
 ! D90   D(25,23,24,45)        -67.4835         estimate D2E/DX2                !
 ! D91   D(24,23,25,22)         80.8439         estimate D2E/DX2                !
 ! D92   D(24,23,25,26)        -38.6855         estimate D2E/DX2                !
 ! D93   D(24,23,25,27)       -156.889          estimate D2E/DX2                !
 ! D94   D(22,25,27,28)        120.5139         estimate D2E/DX2                !
 ! D95   D(22,25,27,30)       -121.0901         estimate D2E/DX2                !
 ! D96   D(22,25,27,34)          8.0269         estimate D2E/DX2                !
 ! D97   D(23,25,27,28)         -3.0175         estimate D2E/DX2                !
 ! D98   D(23,25,27,30)        115.3784         estimate D2E/DX2                !
 ! D99   D(23,25,27,34)       -115.5045         estimate D2E/DX2                !
 ! D100  D(26,25,27,28)       -121.44           estimate D2E/DX2                !
 ! D101  D(26,25,27,30)         -3.044          estimate D2E/DX2                !
 ! D102  D(26,25,27,34)        126.073          estimate D2E/DX2                !
 ! D103  D(25,27,30,29)        -60.3893         estimate D2E/DX2                !
 ! D104  D(25,27,30,31)         58.2331         estimate D2E/DX2                !
 ! D105  D(25,27,30,33)       -176.5388         estimate D2E/DX2                !
 ! D106  D(28,27,30,29)         57.2515         estimate D2E/DX2                !
 ! D107  D(28,27,30,31)        175.874          estimate D2E/DX2                !
 ! D108  D(28,27,30,33)        -58.8979         estimate D2E/DX2                !
 ! D109  D(34,27,30,29)        170.1889         estimate D2E/DX2                !
 ! D110  D(34,27,30,31)        -71.1887         estimate D2E/DX2                !
 ! D111  D(34,27,30,33)         54.0394         estimate D2E/DX2                !
 ! D112  D(25,27,34,35)        -51.8576         estimate D2E/DX2                !
 ! D113  D(28,27,34,35)       -166.2244         estimate D2E/DX2                !
 ! D114  D(30,27,34,35)         78.1429         estimate D2E/DX2                !
 ! D115  D(27,30,31,32)         68.5805         estimate D2E/DX2                !
 ! D116  D(29,30,31,32)       -172.2999         estimate D2E/DX2                !
 ! D117  D(33,30,31,32)        -55.0713         estimate D2E/DX2                !
 ! D118  D(27,34,35,37)         33.1919         estimate D2E/DX2                !
 ! D119  D(27,34,35,40)        -88.9909         estimate D2E/DX2                !
 ! D120  D(27,34,35,41)        152.1154         estimate D2E/DX2                !
 ! D121  D(34,35,37,22)         25.7319         estimate D2E/DX2                !
 ! D122  D(34,35,37,36)        -93.1208         estimate D2E/DX2                !
 ! D123  D(34,35,37,38)        144.6959         estimate D2E/DX2                !
 ! D124  D(40,35,37,22)        150.6885         estimate D2E/DX2                !
 ! D125  D(40,35,37,36)         31.8358         estimate D2E/DX2                !
 ! D126  D(40,35,37,38)        -90.3476         estimate D2E/DX2                !
 ! D127  D(41,35,37,22)        -90.5456         estimate D2E/DX2                !
 ! D128  D(41,35,37,36)        150.6017         estimate D2E/DX2                !
 ! D129  D(41,35,37,38)         28.4184         estimate D2E/DX2                !
 ! D130  D(34,35,40,8)         -80.0043         estimate D2E/DX2                !
 ! D131  D(37,35,40,8)         155.2364         estimate D2E/DX2                !
 ! D132  D(41,35,40,8)          36.3613         estimate D2E/DX2                !
 ! D133  D(22,37,38,39)       -152.1331         estimate D2E/DX2                !
 ! D134  D(35,37,38,39)         87.4122         estimate D2E/DX2                !
 ! D135  D(36,37,38,39)        -33.814          estimate D2E/DX2                !
 --------------------------------------------------------------------------------
 Trust Radius=3.00D-01 FncErr=1.00D-07 GrdErr=1.00D-06
 Number of steps in this run=    270 maximum allowed number of steps=    270.
 GradGradGradGradGradGradGradGradGradGradGradGradGradGradGradGradGradGrad

                          Input orientation:                          
 ---------------------------------------------------------------------
 Center     Atomic      Atomic             Coordinates (Angstroms)
 Number     Number       Type             X           Y           Z
 ---------------------------------------------------------------------
      1          8           0        0.927533   -0.460093    4.147109
      2          8           0        3.318287   -1.906080    3.379284
      3          8           0        2.593718    1.961218    2.698438
      4          8           0        1.248586    1.204829    1.051704
      5          6           0        1.439956    1.179518    2.460486
      6          6           0        1.661836   -0.270377    2.948813
      7          6           0        3.155561   -0.514018    3.196477
      8          6           0        4.023395    0.080897    2.070965
      9          6           0        3.478715    1.476563    1.679077
     10          6           0        2.533349    1.448951    0.465266
     11          1           0        1.190938   -1.321361    4.494010
     12          1           0        4.258226   -2.071217    3.564442
     13          1           0        0.583471    1.635306    2.961831
     14          1           0        1.308684   -0.954873    2.165559
     15          1           0        3.401300    0.036584    4.115776
     16          1           0        4.016688   -0.593509    1.205837
     17          1           0        4.305419    2.178392    1.574184
     18          1           0        2.775420    0.663178   -0.256110
     19          1           0        2.522317    2.416424   -0.047328
     20          1           0       10.020344   -0.599336    1.723997
     21          8           0        9.997975   -0.899645    2.643001
     22          6           0        8.669168   -1.335030    2.865553
     23          8           0        9.031101   -2.558939    4.971889
     24          6           0       10.408961   -2.395717    5.274261
     25          6           0        8.406865   -1.436882    4.371561
     26          1           0        8.786747   -0.511455    4.828614
     27          6           0        6.891254   -1.573758    4.667887
     28          1           0        6.765915   -2.519708    5.200127
     29          1           0        6.867333   -0.499504    6.514036
     30          6           0        6.332507   -0.461855    5.558698
     31          8           0        6.506877    0.845334    5.042055
     32          1           0        5.938567    0.927581    4.261127
     33          1           0        5.273856   -0.676515    5.763157
     34          8           0        6.101576   -1.759719    3.468379
     35          6           0        6.253844   -0.855205    2.389403
     36          1           0        7.773147    0.612081    2.817907
     37          6           0        7.688155   -0.329434    2.264125
     38          8           0        8.046260   -0.143871    0.901202
     39          1           0        7.775574    0.739157    0.630112
     40          8           0        5.390787    0.260896    2.484447
     41          1           0        5.998405   -1.434921    1.495490
     42          1           0        8.503188   -2.324591    2.411693
     43          1           0       10.575841   -1.500157    5.890338
     44          1           0       10.709708   -3.278239    5.844296
     45          1           0       11.021635   -2.316009    4.370958
 ---------------------------------------------------------------------
                    Distance matrix (angstroms):
                    1          2          3          4          5
     1  O    0.000000
     2  O    2.897609   0.000000
     3  O    3.276823   3.993062   0.000000
     4  O    3.529387   4.402164   2.256820   0.000000
     5  C    2.407405   3.727363   1.413804   1.421946   0.000000
     6  C    1.418135   2.367416   2.431277   2.438448   1.545927
     7  C    2.422956   1.413412   2.586601   3.345301   2.520525
     8  C    3.766617   2.481321   2.444035   3.162543   2.834229
     9  C    4.043556   3.789289   1.434297   2.332576   2.203491
    10  C    4.447366   4.512634   2.291968   1.433221   2.291071
    11  H    0.965145   2.471867   3.995897   4.270179   3.232897
    12  H    3.745496   0.972131   4.447593   5.109233   4.441694
    13  H    2.431863   4.493874   2.053457   2.067915   1.092088
    14  H    2.077649   2.533067   3.230922   2.430761   2.158666
    15  H    2.523330   2.079244   2.522945   3.922692   2.809476
    16  H    4.267524   2.633340   3.283189   3.304567   3.370062
    17  H    4.999166   4.573372   2.059377   3.250390   3.161354
    18  H    4.905585   4.484627   3.232225   2.082063   3.070825
    19  H    5.330196   5.573085   2.784159   2.073216   2.998428
    20  H    9.411167   7.026032   7.915854   8.980575   8.793736
    21  O    9.204807   6.795091   7.937924   9.138536   8.808855
    22  C    7.895620   5.405733   6.914063   8.050215   7.664759
    23  O    8.411494   5.966478   8.187814   9.492173   8.826590
    24  C    9.742412   7.355837   9.311056  10.710107  10.056972
    25  C    7.546185   5.205611   6.938235   8.321120   7.683461
    26  H    7.888874   5.826628   7.000384   8.604333   7.902073
    27  C    6.089124   3.812746   5.902847   7.255138   6.493828
    28  H    6.279934   3.946916   6.613953   7.843629   7.039584
    29  H    6.394147   4.939722   6.235201   8.019485   6.979026
    30  C    5.586263   3.990132   5.294423   6.995504   6.019143
    31  O    5.799495   4.527935   4.695801   6.610731   5.696478
    32  H    5.200875   3.958933   3.833851   5.689744   4.852142
    33  H    4.642087   3.319477   4.851111   6.476113   5.389924
    34  O    5.377771   2.788558   5.171388   6.179027   5.602291
    35  C    5.622742   3.271345   4.628635   5.575463   5.226726
    36  H    7.055407   5.148015   5.353590   6.785331   6.368598
    37  C    7.019167   4.777566   5.602589   6.729931   6.430823
    38  O    7.830210   5.621388   6.114873   6.931812   6.915633
    39  H    7.791222   5.867080   5.711658   6.557146   6.609406
    40  O    4.817147   3.129181   3.280317   4.483480   4.056292
    41  H    5.804749   3.309638   4.957090   5.452156   5.342842
    42  H    7.992407   5.290991   7.305629   8.181420   7.884821
    43  H    9.859535   7.690400   9.267342  10.850208  10.119730
    44  H   10.320530   7.911524  10.159608  11.514324  10.828207
    45  H   10.265740   7.777727   9.598009  10.905331  10.376762
                    6          7          8          9         10
     6  C    0.000000
     7  C    1.533595   0.000000
     8  C    2.543810   1.540726   0.000000
     9  C    2.822247   2.523756   1.548592   0.000000
    10  C    3.143824   3.420513   2.582649   1.538771   0.000000
    11  H    1.927160   2.489003   3.982498   4.581064   5.070254
    12  H    3.219203   1.943229   2.630060   4.092552   4.997167
    13  H    2.189673   3.360104   3.878519   3.170662   3.173262
    14  H    1.098516   2.160579   2.907133   3.295084   3.188914
    15  H    2.117017   1.099391   2.137807   2.831437   4.009282
    16  H    2.947492   2.170370   1.096957   2.190564   2.630662
    17  H    3.856761   3.347100   2.173894   1.089498   2.214050
    18  H    3.518967   3.667513   2.704029   2.213858   1.093810
    19  H    4.115360   4.417098   3.492146   2.185980   1.094933
    20  H    8.454173   7.021447   6.045370   6.863256   7.863522
    21  O    8.365448   6.875585   6.081471   7.005445   8.122750
    22  C    7.088238   5.584213   4.921324   6.021095   7.152636
    23  O    7.977244   6.469603   6.360913   7.612941   8.865304
    24  C    9.297149   7.776232   7.561096   8.714827   9.996658
    25  C    6.991449   5.459734   5.177954   6.326476   7.621375
    26  H    7.372661   5.862946   5.535795   6.484366   7.873181
    27  C    5.656928   4.152529   4.207909   5.466522   6.766840
    28  H    6.014942   4.590432   4.906752   6.258886   7.488910
    29  H    6.313518   4.978319   5.307139   6.226106   7.692042
    30  C    5.353815   3.959267   4.217921   5.191633   6.635347
    31  O    5.394525   4.060211   3.947078   4.569227   6.091000
    32  H    4.631166   3.310107   3.030110   3.608218   5.126002
    33  H    4.596974   3.331880   3.971097   4.953583   6.332111
    34  O    4.711622   3.210094   3.107969   4.533710   5.660962
    35  C    4.662778   3.219803   2.439794   3.693649   4.780536
    36  H    6.176082   4.767968   3.860145   4.526191   5.804374
    37  C    6.065378   4.631173   3.692716   4.617715   5.742001
    38  O    6.705937   5.415185   4.195511   4.908499   5.754938
    39  H    6.616141   5.431500   4.072863   4.484093   5.292627
    40  O    3.795123   2.470570   1.439836   2.404680   3.695067
    41  H    4.719549   3.438485   2.555296   3.854774   4.624359
    42  H    7.163267   5.700103   5.096176   6.342778   7.325788
    43  H    9.467017   7.955496   7.747380   8.772957  10.139542
    44  H    9.964690   8.468589   8.380251   9.604397  10.868907
    45  H    9.685708   8.154857   7.746644   8.861460  10.073746
                   11         12         13         14         15
    11  H    0.000000
    12  H    3.291601   0.000000
    13  H    3.385036   5.254072   0.000000
    14  H    2.360055   3.450057   2.805176   0.000000
    15  H    2.621598   2.341178   3.439137   3.027437   0.000000
    16  H    4.396216   2.793739   4.453999   2.895675   3.040307
    17  H    5.520294   4.692817   4.009165   4.375785   3.444483
    18  H    5.386336   4.926687   4.013081   3.260964   4.460688
    19  H    6.030535   6.016410   3.663920   4.211344   4.875211
    20  H    9.281848   6.225406   9.776524   8.730086   7.066594
    21  O    9.009327   5.930123   9.755025   8.702573   6.823614
    22  C    7.653495   4.526238   8.614561   7.403461   5.585232
    23  O    7.951611   4.999912   9.643364   8.371633   6.258141
    24  C    9.313162   6.392208  10.869072   9.723945   7.507695
    25  C    7.217890   4.273760   8.522392   7.448688   5.224195
    26  H    7.646190   4.953634   8.682580   7.950466   5.459993
    27  C    5.708550   2.897912   7.279893   6.148963   3.883015
    28  H    5.745869   3.027394   7.777964   6.437288   4.362463
    29  H    6.080906   4.240027   7.527449   7.072142   4.248815
    30  C    5.320530   3.296930   6.647798   6.082373   3.304911
    31  O    5.766639   3.968128   6.327569   6.207752   3.340161
    32  H    5.258513   3.507379   5.555727   5.419488   2.693089
    33  H    4.323977   2.794825   5.932255   5.361230   2.594001
    34  O    5.035717   1.871950   6.498636   5.031593   3.307162
    35  C    5.502698   2.615701   6.219602   4.951227   3.451472
    36  H    7.062081   4.484649   7.263549   6.683576   4.596597
    37  C    6.940471   4.060671   7.404291   6.410814   4.683984
    38  O    7.828805   5.015647   7.943858   6.902989   5.651699
    39  H    7.907773   5.374033   7.613563   6.859155   5.637174
    40  O    4.917379   2.808529   5.022667   4.271223   2.582559
    41  H    5.667077   2.777347   6.395151   4.761609   3.971924
    42  H    7.668867   4.405988   8.871604   7.327864   5.874377
    43  H    9.489895   6.756342  10.874500  10.002575   7.548820
    44  H    9.811199   6.948112  11.618615  10.359073   8.209060
    45  H    9.881653   6.815724  11.249613  10.052755   7.979306
                   16         17         18         19         20
    16  H    0.000000
    17  H    2.811135   0.000000
    18  H    2.292880   2.826083   0.000000
    19  H    3.586539   2.421862   1.783682   0.000000
    20  H    6.025978   6.355988   7.616015   8.273621   0.000000
    21  O    6.159136   6.559106   7.938045   8.609277   0.967085
    22  C    4.995006   5.749267   6.962319   7.768015   1.915743
    23  O    6.571940   7.504584   8.766274   9.607864   3.920134
    24  C    7.788529   8.477397   9.910237  10.661856   3.997797
    25  C    5.477841   6.141448   7.585431   8.306771   3.211603
    26  H    5.990385   6.157020   7.960542   8.461109   3.341875
    27  C    4.605411   5.507828   6.796302   7.565872   4.405359
    28  H    5.217552   6.424457   7.471635   8.361179   5.134454
    29  H    6.025943   6.175489   7.995652   8.392455   5.735496
    30  C    4.932317   5.191950   6.908731   7.364073   5.322027
    31  O    4.794568   4.318517   6.482862   6.651831   5.043910
    32  H    3.916903   3.383986   5.520945   5.696508   5.042758
    33  H    4.728269   5.160994   6.653460   7.134352   6.232970
    34  O    3.290274   4.724709   5.550276   6.527745   4.443658
    35  C    2.544441   3.696438   4.626409   5.528608   3.833374
    36  H    4.261831   4.003163   5.867663   6.247915   2.777420
    37  C    3.830063   4.267097   5.609976   6.290344   2.409085
    38  O    4.066009   4.454178   5.456414   6.161880   2.186652
    39  H    4.029477   3.873583   5.078652   5.555975   2.833221
    40  O    2.062280   2.383987   3.809544   4.391390   4.769809
    41  H    2.172343   3.991043   4.225844   5.412609   4.114172
    42  H    4.957763   6.212853   6.989368   8.018405   2.398164
    43  H    8.111045   8.454531  10.163927  10.744986   4.298657
    44  H    8.574357   9.435232  10.756517  11.583341   4.962722
    45  H    7.877454   8.551558   9.913898  10.684361   3.309978
                   21         22         23         24         25
    21  O    0.000000
    22  C    1.415916   0.000000
    23  O    3.018579   2.462844   0.000000
    24  C    3.054615   3.154966   1.420059   0.000000
    25  C    2.410015   1.532069   1.417419   2.396376   0.000000
    26  H    2.528768   2.132067   2.066985   2.525989   1.099829
    27  C    3.769125   2.542907   2.375278   3.663000   1.550362
    28  H    4.428285   3.236676   2.276993   3.645909   2.133483
    29  H    4.994591   4.154051   3.361753   4.204259   2.799828
    30  C    4.704105   3.670892   3.467638   4.520863   2.581266
    31  O    4.581286   3.763861   4.238597   5.077853   3.044343
    32  H    4.736653   3.810934   4.714316   5.661729   3.419850
    33  H    5.665903   4.511972   4.276274   5.437277   3.511473
    34  O    4.074666   2.671383   3.388423   4.713732   2.496862
    35  C    3.752973   2.508135   4.157535   5.287776   2.983756
    36  H    2.695509   2.143913   4.034533   4.693404   2.648337
    37  C    2.409140   1.528177   3.755820   4.553376   2.486820
    38  O    2.722912   2.380241   4.834559   5.456813   3.720928
    39  H    3.417084   3.177728   5.595070   6.191145   4.374027
    40  O    4.753754   3.666061   5.233615   6.326352   3.942128
    41  H    4.195219   3.003336   4.748264   5.886870   3.751329
    42  H    2.078067   1.101258   2.624541   3.439669   2.153692
    43  H    3.352572   3.579384   2.085855   1.099740   2.648612
    44  H    4.051242   4.100338   2.023909   1.092810   3.295850
    45  H    2.457601   2.960180   2.093408   1.094385   2.758602
                   26         27         28         29         30
    26  H    0.000000
    27  C    2.178810   0.000000
    28  H    2.873128   1.092616   0.000000
    29  H    2.554396   2.136085   2.412025   0.000000
    30  C    2.561011   1.530383   2.133348   1.095503   0.000000
    31  O    2.661624   2.477853   3.378697   2.026141   1.416357
    32  H    3.241141   2.707354   3.667428   2.823965   1.941497
    33  H    3.638821   2.149567   2.437335   1.770401   1.099375
    34  O    3.258611   1.448100   2.004465   3.383866   2.471278
    35  C    3.533201   2.472670   3.306502   4.185151   3.194580
    36  H    2.516478   2.996340   4.061723   3.964529   3.277303
    37  C    2.795825   2.821607   3.777292   4.331791   3.565043
    38  O    4.013478   4.191245   5.075888   5.746325   4.972960
    39  H    4.495989   4.736584   5.703039   6.081097   5.274072
    40  O    4.198117   3.222540   4.122821   4.358438   3.295486
    41  H    4.442674   3.298569   3.935755   5.178402   4.191437
    42  H    3.034695   2.872715   3.291132   4.778722   4.252679
    43  H    2.303399   3.882781   4.003925   3.891444   4.381089
    44  H    3.519159   4.343937   4.067410   4.788921   5.212818
    45  H    2.908709   4.207036   4.340526   5.015047   5.180399
                   31         32         33         34         35
    31  O    0.000000
    32  H    0.969324   0.000000
    33  H    2.087188   2.295879   0.000000
    34  O    3.070346   2.806529   2.669168   0.000000
    35  C    3.161079   2.604050   3.517744   1.416164   0.000000
    36  H    2.569957   2.355442   4.072031   2.973668   2.155186
    37  C    3.239196   2.937544   4.265270   2.452178   1.532768
    38  O    4.527128   4.108464   5.622147   3.603215   2.435876
    39  H    4.591961   4.073619   5.883100   4.135506   2.820063
    40  O    2.851067   1.975126   3.412089   2.357165   1.414066
    41  H    4.246908   3.637821   4.394671   2.002106   1.095628
    42  H    4.577389   4.535891   4.937312   2.683916   2.686846
    43  H    4.772565   5.482021   5.367085   5.094340   5.599301
    44  H    5.942326   6.554322   6.026943   5.402385   6.136946
    45  H    5.552252   6.030798   6.137029   5.033000   5.365849
                   36         37         38         39         40
    36  H    0.000000
    37  C    1.095604   0.000000
    38  O    2.078416   1.421349   0.000000
    39  H    2.191484   1.954361   0.962548   0.000000
    40  O    2.431083   2.382211   3.118018   3.058513   0.000000
    41  H    3.014749   2.160592   2.492729   2.938337   2.055001
    42  H    3.053197   2.160256   2.691822   3.618011   4.046860
    43  H    4.664384   4.781082   5.755847   6.366003   6.448735
    44  H    5.737335   5.535599   6.430583   7.206686   7.218378
    45  H    4.640943   4.415576   5.060657   5.819354   6.473470
                   41         42         43         44         45
    41  H    0.000000
    42  H    2.811562   0.000000
    43  H    6.346012   4.132379   0.000000
    44  H    6.671305   4.190577   1.783708   0.000000
    45  H    5.854697   3.190826   1.781253   1.787151   0.000000
 Symmetry turned off by external request.
 Stoichiometry    C13H22O10
 Framework group  C1[X(C13H22O10)]
 Deg. of freedom   129
 Full point group                 C1      NOp   1
 Rotational constants (GHZ):      0.5590629      0.1431830      0.1273579
 Standard basis: 6-31G(2df,p) (6D, 7F)
 Integral buffers will be    131072 words long.
 Raffenetti 2 integral format.
 Two-electron integral symmetry is turned off.
   754 basis functions,  1166 primitive gaussians,   823 cartesian basis functions
    90 alpha electrons       90 beta electrons
       nuclear repulsion energy      2314.0204353779 Hartrees.
 NAtoms=   45 NActive=   45 NUniq=   45 SFac= 1.00D+00 NAtFMM=   50 NAOKFM=F Big=F
 ------------------------------------------------------------------------------
 Polarizable Continuum Model (PCM)
 =================================
 Model                : PCM.
 Atomic radii         : UFF (Universal Force Field).
 Polarization charges : Total charges.
 Charge compensation  : None.
 Solution method      : Matrix inversion.
 Cavity type          : Scaled VdW (van der Waals Surface) (Alpha=1.100).
 Cavity algorithm     : GePol (No added spheres)
                        Default sphere list used, NSphG=   45.
                        Lebedev-Laikov grids with approx.  5.0 points / Ang**2.
                        Smoothing algorithm: Karplus/York (Gamma=1.0000).
                        Polarization charges: spherical gaussians, with
                                              point-specific exponents (IZeta= 3).
                        Self-potential: point-specific (ISelfS= 7).
                        Self-field    : sphere-specific E.n sum rule (ISelfD= 2).
 1st derivatives      : Analytical E(r).r(x)/FMM algorithm (CHGder, D1EAlg=3).
                        Cavity 1st derivative terms included.
 Solvent              : TetraHydroFuran, Eps=   7.425700 Eps(inf)=   1.974025
 ------------------------------------------------------------------------------
 One-electron integrals computed using PRISM.
 NBasis=   754 RedAO= T  NBF=   754
 NBsUse=   754 1.00D-06 NBFU=   754
 Harris functional with IExCor=  402 diagonalized for initial guess.
 ExpMin= 1.61D-01 ExpMax= 5.48D+03 ExpMxC= 8.25D+02 IAcc=1 IRadAn=         1 AccDes= 0.00D+00
 HarFok:  IExCor=  402 AccDes= 0.00D+00 IRadAn=         1 IDoV= 1
 ScaDFX=  1.000000  1.000000  1.000000  1.000000
 FoFCou: FMM=F IPFlag=           0 FMFlag=      100000 FMFlg1=           0
         NFxFlg=           0 DoJE=T BraDBF=F KetDBF=T FulRan=T
         Omega=  0.000000  0.000000  1.000000  0.000000  0.000000 ICntrl=     500 IOpCl=  0
         NMat0=    1 NMatS0=    1 NMatT0=    0 NMatD0=    1 NMtDS0=    0 NMtDT0=    0
         I1Cent=           4 NGrid=           0.
 Symmetry not used in FoFCou.
 Requested convergence on RMS density matrix=1.00D-08 within 128 cycles.
 Requested convergence on MAX density matrix=1.00D-06.
 Requested convergence on             energy=1.00D-06.
 No special actions if energy rises.
 Error on total polarization charges =  0.00726
 SCF Done:  E(RB3LYP) =  -1260.88877067     A.U. after   11 cycles
             Convg  =    0.8330D-08             -V/T =  2.0065

 **********************************************************************

            Population analysis using the SCF density.

 **********************************************************************

 Alpha  occ. eigenvalues --  -19.17802 -19.17436 -19.16321 -19.16117 -19.15295
 Alpha  occ. eigenvalues --  -19.14592 -19.14266 -19.14207 -19.14041 -19.13835
 Alpha  occ. eigenvalues --  -10.29744 -10.28405 -10.25185 -10.25092 -10.24646
 Alpha  occ. eigenvalues --  -10.24616 -10.24097 -10.23952 -10.23802 -10.23757
 Alpha  occ. eigenvalues --  -10.23462 -10.23376 -10.21931  -1.10453  -1.09322
 Alpha  occ. eigenvalues --   -1.04966  -1.04138  -1.03452  -1.03077  -1.01979
 Alpha  occ. eigenvalues --   -1.01596  -1.01237  -1.00266  -0.80802  -0.79607
 Alpha  occ. eigenvalues --   -0.78132  -0.76984  -0.70865  -0.69180  -0.66627
 Alpha  occ. eigenvalues --   -0.65795  -0.64351  -0.62676  -0.61727  -0.57636
 Alpha  occ. eigenvalues --   -0.57358  -0.56007  -0.54544  -0.53925  -0.53107
 Alpha  occ. eigenvalues --   -0.52227  -0.51060  -0.50237  -0.49820  -0.49459
 Alpha  occ. eigenvalues --   -0.48750  -0.47877  -0.46428  -0.45793  -0.45129
 Alpha  occ. eigenvalues --   -0.44495  -0.44258  -0.43004  -0.42730  -0.42096
 Alpha  occ. eigenvalues --   -0.40823  -0.40341  -0.39965  -0.39439  -0.39002
 Alpha  occ. eigenvalues --   -0.38503  -0.36966  -0.36136  -0.35838  -0.35432
 Alpha  occ. eigenvalues --   -0.34761  -0.34401  -0.33847  -0.32986  -0.32157
 Alpha  occ. eigenvalues --   -0.31467  -0.30433  -0.29563  -0.29005  -0.27965
 Alpha  occ. eigenvalues --   -0.27575  -0.26911  -0.26487  -0.25912  -0.25327
 Alpha virt. eigenvalues --    0.05537   0.06480   0.07044   0.07891   0.08948
 Alpha virt. eigenvalues --    0.09466   0.09904   0.10449   0.11043   0.11561
 Alpha virt. eigenvalues --    0.12285   0.13410   0.13566   0.14085   0.14260
 Alpha virt. eigenvalues --    0.14671   0.15391   0.15432   0.15796   0.16447
 Alpha virt. eigenvalues --    0.16942   0.17161   0.17904   0.18215   0.18720
 Alpha virt. eigenvalues --    0.19176   0.19488   0.19773   0.20388   0.20648
 Alpha virt. eigenvalues --    0.21265   0.23091   0.23289   0.23632   0.24645
 Alpha virt. eigenvalues --    0.24866   0.25633   0.25941   0.27661   0.28623
 Alpha virt. eigenvalues --    0.28968   0.30339   0.30788   0.32000   0.32376
 Alpha virt. eigenvalues --    0.32962   0.33720   0.39940   0.41119   0.41236
 Alpha virt. eigenvalues --    0.42366   0.43436   0.44189   0.44918   0.45549
 Alpha virt. eigenvalues --    0.46165   0.46873   0.47070   0.47954   0.47988
 Alpha virt. eigenvalues --    0.48989   0.49462   0.49731   0.51006   0.52297
 Alpha virt. eigenvalues --    0.52770   0.52848   0.53936   0.54167   0.55575
 Alpha virt. eigenvalues --    0.57257   0.57426   0.57759   0.58830   0.59836
 Alpha virt. eigenvalues --    0.60698   0.61256   0.62725   0.63562   0.64173
 Alpha virt. eigenvalues --    0.64628   0.65000   0.65605   0.66906   0.67595
 Alpha virt. eigenvalues --    0.68156   0.68918   0.69223   0.70614   0.71135
 Alpha virt. eigenvalues --    0.71473   0.72051   0.72427   0.72875   0.73644
 Alpha virt. eigenvalues --    0.73805   0.74889   0.75243   0.75392   0.75655
 Alpha virt. eigenvalues --    0.76587   0.77096   0.77971   0.78279   0.78806
 Alpha virt. eigenvalues --    0.79439   0.79968   0.80323   0.80938   0.81372
 Alpha virt. eigenvalues --    0.81761   0.82429   0.82916   0.84068   0.84556
 Alpha virt. eigenvalues --    0.85003   0.85537   0.86610   0.86972   0.87463
 Alpha virt. eigenvalues --    0.88286   0.89085   0.89677   0.90343   0.90857
 Alpha virt. eigenvalues --    0.91724   0.92404   0.93002   0.93277   0.93716
 Alpha virt. eigenvalues --    0.94456   0.94510   0.95299   0.95621   0.96377
 Alpha virt. eigenvalues --    0.96569   0.97215   0.97688   0.99056   1.00308
 Alpha virt. eigenvalues --    1.01248   1.02867   1.03646   1.04903   1.05479
 Alpha virt. eigenvalues --    1.06045   1.06603   1.06718   1.07775   1.08958
 Alpha virt. eigenvalues --    1.09489   1.10582   1.12301   1.12909   1.13341
 Alpha virt. eigenvalues --    1.14561   1.14782   1.15019   1.16836   1.18150
 Alpha virt. eigenvalues --    1.19411   1.20433   1.21051   1.22641   1.23149
 Alpha virt. eigenvalues --    1.23448   1.24106   1.25591   1.26329   1.27359
 Alpha virt. eigenvalues --    1.27557   1.28359   1.29679   1.29936   1.31243
 Alpha virt. eigenvalues --    1.31415   1.32362   1.32883   1.33793   1.34910
 Alpha virt. eigenvalues --    1.35693   1.36240   1.37015   1.38222   1.38774
 Alpha virt. eigenvalues --    1.39926   1.40313   1.40782   1.42179   1.42392
 Alpha virt. eigenvalues --    1.43385   1.44080   1.45650   1.46234   1.46446
 Alpha virt. eigenvalues --    1.47600   1.48245   1.49052   1.49492   1.49973
 Alpha virt. eigenvalues --    1.50787   1.51485   1.52068   1.52611   1.53455
 Alpha virt. eigenvalues --    1.54299   1.55295   1.56435   1.56954   1.57729
 Alpha virt. eigenvalues --    1.58607   1.59280   1.60400   1.61163   1.62273
 Alpha virt. eigenvalues --    1.63455   1.63884   1.65006   1.66104   1.66828
 Alpha virt. eigenvalues --    1.67203   1.67977   1.69348   1.69852   1.70915
 Alpha virt. eigenvalues --    1.72096   1.73272   1.74693   1.75752   1.76196
 Alpha virt. eigenvalues --    1.76492   1.77796   1.78572   1.79339   1.79784
 Alpha virt. eigenvalues --    1.80637   1.81676   1.82201   1.83005   1.84020
 Alpha virt. eigenvalues --    1.85790   1.86067   1.88036   1.88288   1.88623
 Alpha virt. eigenvalues --    1.89494   1.90855   1.91155   1.93367   1.93744
 Alpha virt. eigenvalues --    1.95163   1.96537   1.97187   1.97730   1.99744
 Alpha virt. eigenvalues --    2.01450   2.02406   2.03058   2.05261   2.05712
 Alpha virt. eigenvalues --    2.06672   2.09397   2.10007   2.10426   2.13556
 Alpha virt. eigenvalues --    2.14423   2.14975   2.16654   2.17855   2.19488
 Alpha virt. eigenvalues --    2.22761   2.23396   2.25349   2.26112   2.27254
 Alpha virt. eigenvalues --    2.28049   2.31135   2.32308   2.33573   2.34675
 Alpha virt. eigenvalues --    2.36888   2.38510   2.40647   2.41746   2.43266
 Alpha virt. eigenvalues --    2.43643   2.44919   2.45160   2.47779   2.50358
 Alpha virt. eigenvalues --    2.50680   2.52174   2.52862   2.53399   2.54730
 Alpha virt. eigenvalues --    2.55198   2.56578   2.57498   2.58845   2.59099
 Alpha virt. eigenvalues --    2.61520   2.61830   2.62574   2.64779   2.66000
 Alpha virt. eigenvalues --    2.67343   2.69113   2.70979   2.71319   2.73628
 Alpha virt. eigenvalues --    2.74319   2.74845   2.75551   2.76377   2.77726
 Alpha virt. eigenvalues --    2.78170   2.79243   2.79559   2.80603   2.81234
 Alpha virt. eigenvalues --    2.81956   2.82609   2.84050   2.84719   2.85895
 Alpha virt. eigenvalues --    2.86158   2.87717   2.88232   2.90111   2.90781
 Alpha virt. eigenvalues --    2.91035   2.92652   2.93422   2.93943   2.94699
 Alpha virt. eigenvalues --    2.95913   2.96247   2.97149   2.97548   2.99623
 Alpha virt. eigenvalues --    3.00485   3.00708   3.01423   3.02219   3.04183
 Alpha virt. eigenvalues --    3.06791   3.07559   3.09022   3.09975   3.11649
 Alpha virt. eigenvalues --    3.12568   3.13483   3.14039   3.14609   3.16269
 Alpha virt. eigenvalues --    3.17494   3.18420   3.19596   3.22076   3.22727
 Alpha virt. eigenvalues --    3.25199   3.26186   3.26939   3.27548   3.28503
 Alpha virt. eigenvalues --    3.29725   3.31057   3.32354   3.34000   3.35677
 Alpha virt. eigenvalues --    3.35941   3.36350   3.37592   3.38553   3.39478
 Alpha virt. eigenvalues --    3.41124   3.41943   3.43494   3.45440   3.46175
 Alpha virt. eigenvalues --    3.46904   3.47291   3.47946   3.49816   3.50453
 Alpha virt. eigenvalues --    3.51177   3.51939   3.52725   3.55100   3.56545
 Alpha virt. eigenvalues --    3.58023   3.58221   3.60428   3.61710   3.61753
 Alpha virt. eigenvalues --    3.62507   3.63881   3.65065   3.67119   3.67887
 Alpha virt. eigenvalues --    3.68976   3.69255   3.70134   3.70974   3.72016
 Alpha virt. eigenvalues --    3.73452   3.73878   3.75122   3.76772   3.79556
 Alpha virt. eigenvalues --    3.81099   3.86176   3.86944   3.88508   3.91328
 Alpha virt. eigenvalues --    3.92370   3.92892   3.94710   3.95559   3.98343
 Alpha virt. eigenvalues --    4.01656   4.03321   4.04544   4.05553   4.07157
 Alpha virt. eigenvalues --    4.07640   4.10634   4.11657   4.14240   4.15558
 Alpha virt. eigenvalues --    4.17954   4.19870   4.20675   4.22172   4.23424
 Alpha virt. eigenvalues --    4.23651   4.26431   4.27381   4.28247   4.29450
 Alpha virt. eigenvalues --    4.29803   4.30027   4.32215   4.33448   4.33570
 Alpha virt. eigenvalues --    4.34068   4.35058   4.35475   4.37077   4.37306
 Alpha virt. eigenvalues --    4.38528   4.38603   4.39526   4.40460   4.41237
 Alpha virt. eigenvalues --    4.41299   4.41980   4.43423   4.43952   4.44586
 Alpha virt. eigenvalues --    4.45247   4.46279   4.46709   4.46997   4.47551
 Alpha virt. eigenvalues --    4.48277   4.48434   4.49570   4.51305   4.52090
 Alpha virt. eigenvalues --    4.52922   4.53065   4.53955   4.54566   4.56079
 Alpha virt. eigenvalues --    4.56184   4.57009   4.58250   4.59069   4.59508
 Alpha virt. eigenvalues --    4.59780   4.60483   4.61385   4.62190   4.62390
 Alpha virt. eigenvalues --    4.62626   4.63614   4.64064   4.64857   4.65021
 Alpha virt. eigenvalues --    4.66756   4.67360   4.67948   4.68813   4.69778
 Alpha virt. eigenvalues --    4.70090   4.70977   4.71742   4.71894   4.72417
 Alpha virt. eigenvalues --    4.73042   4.73446   4.74306   4.75598   4.76175
 Alpha virt. eigenvalues --    4.77020   4.77772   4.78094   4.78712   4.79153
 Alpha virt. eigenvalues --    4.80698   4.81518   4.82239   4.83060   4.85256
 Alpha virt. eigenvalues --    4.85637   4.86966   4.87986   4.88482   4.89424
 Alpha virt. eigenvalues --    4.90498   4.91524   4.91846   4.93082   4.93583
 Alpha virt. eigenvalues --    4.94363   4.95734   4.97099   4.98423   4.99522
 Alpha virt. eigenvalues --    5.00562   5.01279   5.03909   5.06016   5.06875
 Alpha virt. eigenvalues --    5.08919   5.11071   5.12242   5.12858   5.14157
 Alpha virt. eigenvalues --    5.16799   5.17618   5.19148   5.20113   5.22727
 Alpha virt. eigenvalues --    5.25679   5.26816   5.27741   5.29867   5.30956
 Alpha virt. eigenvalues --    5.31516   5.32081   5.33258   5.35049   5.36637
 Alpha virt. eigenvalues --    5.37822   5.39590   5.40456   5.41714   5.42251
 Alpha virt. eigenvalues --    5.43182   5.43996   5.44497   5.45569   5.46393
 Alpha virt. eigenvalues --    5.46872   5.47675   5.48262   5.49097   5.49975
 Alpha virt. eigenvalues --    5.50956   5.53167   5.53400   5.56169   5.56911
 Alpha virt. eigenvalues --    5.59179   5.59609   5.60830   5.62077   5.63888
 Alpha virt. eigenvalues --    5.65032   5.65888   5.66589   5.69115   5.70786
 Alpha virt. eigenvalues --    5.75246   5.76748   5.79691   5.81432   5.83305
 Alpha virt. eigenvalues --    5.85961   5.87300   5.88155   5.90011   5.90818
 Alpha virt. eigenvalues --    5.91343   5.91524   5.92807   5.95341   5.95984
 Alpha virt. eigenvalues --    5.97299   5.98141   5.98764   5.98971   5.99545
 Alpha virt. eigenvalues --    6.02728   6.03835   6.05497   6.06015   6.06507
 Alpha virt. eigenvalues --    6.08706   6.09881   6.11048   6.12125   6.12678
 Alpha virt. eigenvalues --    6.13620   6.13798   6.16284   6.18766   6.19638
 Alpha virt. eigenvalues --    6.20534   6.22968   6.25515   6.26807   6.32245
 Alpha virt. eigenvalues --    6.33773   6.42702   6.66648   6.74091   6.83789
 Alpha virt. eigenvalues --    6.94920   7.06716   7.08463   7.11558   7.19872
 Alpha virt. eigenvalues --    7.24071   7.27101   7.48491   7.64661   7.82329
 Alpha virt. eigenvalues --    7.88911  11.02336  11.17646  11.28505  11.45898
 Alpha virt. eigenvalues --   11.68837  11.81840  12.01299  12.32342  12.48354
 Alpha virt. eigenvalues --   12.57453  12.72426  12.81866  12.92567  13.27386
 Alpha virt. eigenvalues --   13.34234  13.36238  13.42169  13.48423  13.58978
 Alpha virt. eigenvalues --   13.71699  13.94675  13.97619  14.23183
          Condensed to atoms (all electrons):
              1          2          3          4          5          6
     1  O    7.893515  -0.003909   0.000425   0.000955  -0.015463   0.318562
     2  O   -0.003909   7.909213   0.000185   0.000011   0.001527  -0.021135
     3  O    0.000425   0.000185   7.730181  -0.058704   0.355893  -0.038610
     4  O    0.000955   0.000011  -0.058704   7.792995   0.308969  -0.042200
     5  C   -0.015463   0.001527   0.355893   0.308969   4.835324   0.270098
     6  C    0.318562  -0.021135  -0.038610  -0.042200   0.270098   4.944496
     7  C   -0.023911   0.357763  -0.016871   0.000705  -0.004344   0.304167
     8  C    0.004510  -0.041778  -0.048590  -0.000051  -0.000916  -0.021117
     9  C   -0.000276   0.002574   0.386534  -0.041245  -0.092968   0.000427
    10  C   -0.000049  -0.000041  -0.049343   0.377417  -0.114368  -0.000767
    11  H    0.313269   0.012477  -0.000154  -0.000127   0.005907  -0.061176
    12  H   -0.000046   0.311043   0.000023   0.000004  -0.000159   0.005337
    13  H    0.005258  -0.000016  -0.013322  -0.015377   0.351686  -0.058705
    14  H   -0.030510   0.000105   0.003686   0.007476  -0.049243   0.336814
    15  H    0.002011  -0.037266   0.009811   0.000107  -0.002076  -0.031791
    16  H   -0.000065   0.001942   0.002307   0.000157  -0.001387  -0.001250
    17  H    0.000004  -0.000038  -0.015528   0.002634   0.002574  -0.000024
    18  H   -0.000007  -0.000029   0.001722  -0.025512   0.006987   0.001094
    19  H    0.000002   0.000000   0.001086  -0.025994  -0.001413  -0.000119
    20  H    0.000000   0.000000   0.000000   0.000000   0.000000   0.000000
    21  O    0.000000   0.000000   0.000000   0.000000   0.000000   0.000000
    22  C    0.000000  -0.000001   0.000000   0.000000   0.000000   0.000000
    23  O    0.000000   0.000000   0.000000   0.000000   0.000000   0.000000
    24  C    0.000000   0.000000   0.000000   0.000000   0.000000   0.000000
    25  C    0.000000  -0.000006   0.000000   0.000000   0.000000   0.000000
    26  H    0.000000   0.000000   0.000000   0.000000   0.000000   0.000000
    27  C    0.000000   0.000798   0.000000   0.000000   0.000000   0.000004
    28  H    0.000000   0.000053   0.000000   0.000000   0.000000   0.000000
    29  H    0.000000   0.000003   0.000000   0.000000   0.000000   0.000000
    30  C    0.000000  -0.000433  -0.000005   0.000000   0.000000   0.000019
    31  O    0.000000   0.000003  -0.000003   0.000000   0.000000   0.000004
    32  H   -0.000002  -0.000057   0.000114   0.000000  -0.000013   0.000046
    33  H   -0.000009   0.000961  -0.000005   0.000000   0.000000  -0.000040
    34  O    0.000000  -0.018267   0.000001   0.000000   0.000001   0.000070
    35  C   -0.000002   0.007772  -0.000055   0.000001   0.000000  -0.000030
    36  H    0.000000   0.000002   0.000000   0.000000   0.000000   0.000000
    37  C    0.000000   0.000041   0.000001   0.000000   0.000000   0.000000
    38  O    0.000000   0.000000   0.000000   0.000000   0.000000   0.000000
    39  H    0.000000   0.000000   0.000000   0.000000   0.000000   0.000000
    40  O   -0.000015   0.000912  -0.000113   0.000003  -0.000219   0.001997
    41  H    0.000000   0.000266  -0.000004   0.000000  -0.000004   0.000060
    42  H    0.000000   0.000001   0.000000   0.000000   0.000000   0.000000
    43  H    0.000000   0.000000   0.000000   0.000000   0.000000   0.000000
    44  H    0.000000   0.000000   0.000000   0.000000   0.000000   0.000000
    45  H    0.000000   0.000000   0.000000   0.000000   0.000000   0.000000
              7          8          9         10         11         12
     1  O   -0.023911   0.004510  -0.000276  -0.000049   0.313269  -0.000046
     2  O    0.357763  -0.041778   0.002574  -0.000041   0.012477   0.311043
     3  O   -0.016871  -0.048590   0.386534  -0.049343  -0.000154   0.000023
     4  O    0.000705  -0.000051  -0.041245   0.377417  -0.000127   0.000004
     5  C   -0.004344  -0.000916  -0.092968  -0.114368   0.005907  -0.000159
     6  C    0.304167  -0.021117   0.000427  -0.000767  -0.061176   0.005337
     7  C    4.912857   0.245740  -0.017725   0.001958  -0.002007  -0.063190
     8  C    0.245740   5.132615   0.292860  -0.033346   0.000432   0.001391
     9  C   -0.017725   0.292860   4.869557   0.314561  -0.000045  -0.000207
    10  C    0.001958  -0.033346   0.314561   4.908135   0.000004   0.000010
    11  H   -0.002007   0.000432  -0.000045   0.000004   0.431717  -0.000215
    12  H   -0.063190   0.001391  -0.000207   0.000010  -0.000215   0.397984
    13  H    0.003994   0.000355   0.003098   0.005725  -0.000497   0.000005
    14  H   -0.043513   0.000399  -0.000990   0.002476  -0.002476  -0.000142
    15  H    0.319628  -0.047236  -0.000673   0.000557  -0.000313  -0.002991
    16  H   -0.036338   0.326097  -0.027299  -0.002546  -0.000003   0.000463
    17  H    0.002326  -0.050011   0.360642  -0.028552   0.000000   0.000003
    18  H    0.000709  -0.008119  -0.023549   0.362695   0.000001  -0.000003
    19  H   -0.000156   0.003174  -0.014334   0.359168   0.000000   0.000000
    20  H    0.000000   0.000000   0.000000   0.000000   0.000000   0.000000
    21  O    0.000000   0.000000   0.000000   0.000000   0.000000   0.000000
    22  C    0.000010  -0.000052   0.000000   0.000000   0.000000   0.000009
    23  O    0.000000   0.000000   0.000000   0.000000   0.000000  -0.000001
    24  C    0.000000   0.000000   0.000000   0.000000   0.000000   0.000000
    25  C    0.000018  -0.000037   0.000000   0.000000   0.000000   0.000369
    26  H   -0.000001   0.000003   0.000000   0.000000   0.000000  -0.000009
    27  C    0.000104  -0.000112   0.000016   0.000000   0.000000  -0.002354
    28  H    0.000011   0.000010   0.000000   0.000000   0.000000  -0.000651
    29  H    0.000023   0.000001   0.000000   0.000000   0.000000  -0.000026
    30  C   -0.000640  -0.000003  -0.000007   0.000000  -0.000003   0.000486
    31  O   -0.000139   0.000608  -0.000076   0.000000   0.000000  -0.000058
    32  H    0.000511  -0.004730   0.000857   0.000019   0.000000   0.000004
    33  H    0.001422   0.000073  -0.000022   0.000000   0.000025   0.001273
    34  O    0.006232   0.001692  -0.000015   0.000001   0.000003   0.050323
    35  C    0.001446  -0.061517   0.002271  -0.000185  -0.000006  -0.003904
    36  H   -0.000027   0.000153   0.000012   0.000001   0.000000  -0.000031
    37  C    0.000210   0.001024  -0.000095   0.000008   0.000000   0.000551
    38  O    0.000002   0.000105  -0.000009   0.000000   0.000000  -0.000004
    39  H    0.000004   0.000055  -0.000022   0.000001   0.000000   0.000000
    40  O   -0.023116   0.276359  -0.011134   0.001468  -0.000004   0.001324
    41  H   -0.000383  -0.006076   0.000706   0.000022   0.000000  -0.000501
    42  H   -0.000001   0.000015   0.000000   0.000000   0.000000  -0.000020
    43  H    0.000000   0.000000   0.000000   0.000000   0.000000   0.000000
    44  H    0.000000   0.000000   0.000000   0.000000   0.000000   0.000000
    45  H    0.000000   0.000000   0.000000   0.000000   0.000000   0.000000
             13         14         15         16         17         18
     1  O    0.005258  -0.030510   0.002011  -0.000065   0.000004  -0.000007
     2  O   -0.000016   0.000105  -0.037266   0.001942  -0.000038  -0.000029
     3  O   -0.013322   0.003686   0.009811   0.002307  -0.015528   0.001722
     4  O   -0.015377   0.007476   0.000107   0.000157   0.002634  -0.025512
     5  C    0.351686  -0.049243  -0.002076  -0.001387   0.002574   0.006987
     6  C   -0.058705   0.336814  -0.031791  -0.001250  -0.000024   0.001094
     7  C    0.003994  -0.043513   0.319628  -0.036338   0.002326   0.000709
     8  C    0.000355   0.000399  -0.047236   0.326097  -0.050011  -0.008119
     9  C    0.003098  -0.000990  -0.000673  -0.027299   0.360642  -0.023549
    10  C    0.005725   0.002476   0.000557  -0.002546  -0.028552   0.362695
    11  H   -0.000497  -0.002476  -0.000313  -0.000003   0.000000   0.000001
    12  H    0.000005  -0.000142  -0.002991   0.000463   0.000003  -0.000003
    13  H    0.601499   0.003857  -0.000034   0.000006  -0.000283  -0.000307
    14  H    0.003857   0.669990   0.008232   0.003057   0.000000  -0.000453
    15  H   -0.000034   0.008232   0.680477   0.006997  -0.000342  -0.000011
    16  H    0.000006   0.003057   0.006997   0.625596   0.003736   0.004115
    17  H   -0.000283   0.000000  -0.000342   0.003736   0.600679   0.003880
    18  H   -0.000307  -0.000453  -0.000011   0.004115   0.003880   0.600273
    19  H    0.000138   0.000043   0.000001   0.000010  -0.004705  -0.050349
    20  H    0.000000   0.000000   0.000000   0.000000   0.000000   0.000000
    21  O    0.000000   0.000000   0.000000   0.000000   0.000000   0.000000
    22  C    0.000000   0.000000   0.000002   0.000004   0.000005   0.000000
    23  O    0.000000   0.000000   0.000000   0.000000   0.000000   0.000000
    24  C    0.000000   0.000000   0.000000   0.000000   0.000000   0.000000
    25  C    0.000000   0.000000  -0.000020  -0.000002   0.000000   0.000000
    26  H    0.000000   0.000000  -0.000001   0.000000   0.000000   0.000000
    27  C    0.000000   0.000000  -0.000223   0.000009   0.000003   0.000000
    28  H    0.000000   0.000000  -0.000003   0.000000   0.000000   0.000000
    29  H    0.000000   0.000000  -0.000014   0.000000   0.000000   0.000000
    30  C    0.000000   0.000000   0.001374  -0.000003  -0.000010   0.000000
    31  O    0.000000   0.000000   0.000485  -0.000021  -0.000025   0.000000
    32  H    0.000000   0.000000   0.002614   0.000387   0.000458   0.000000
    33  H    0.000000  -0.000001  -0.001266  -0.000005   0.000001   0.000000
    34  O    0.000000   0.000000  -0.000231  -0.000844   0.000020   0.000000
    35  C    0.000000   0.000000   0.000650  -0.006491  -0.000129  -0.000010
    36  H    0.000000   0.000000  -0.000021   0.000008   0.000068   0.000000
    37  C    0.000000   0.000000   0.000053   0.000884   0.000068   0.000001
    38  O    0.000000   0.000000   0.000000  -0.000075   0.000004   0.000000
    39  H    0.000000   0.000000   0.000000   0.000015   0.000106   0.000001
    40  O    0.000003  -0.000087  -0.003430  -0.023726   0.007147   0.000158
    41  H    0.000000  -0.000001   0.000082   0.011117   0.000098  -0.000001
    42  H    0.000000   0.000000   0.000000  -0.000002   0.000000   0.000000
    43  H    0.000000   0.000000   0.000000   0.000000   0.000000   0.000000
    44  H    0.000000   0.000000   0.000000   0.000000   0.000000   0.000000
    45  H    0.000000   0.000000   0.000000   0.000000   0.000000   0.000000
             19         20         21         22         23         24
     1  O    0.000002   0.000000   0.000000   0.000000   0.000000   0.000000
     2  O    0.000000   0.000000   0.000000  -0.000001   0.000000   0.000000
     3  O    0.001086   0.000000   0.000000   0.000000   0.000000   0.000000
     4  O   -0.025994   0.000000   0.000000   0.000000   0.000000   0.000000
     5  C   -0.001413   0.000000   0.000000   0.000000   0.000000   0.000000
     6  C   -0.000119   0.000000   0.000000   0.000000   0.000000   0.000000
     7  C   -0.000156   0.000000   0.000000   0.000010   0.000000   0.000000
     8  C    0.003174   0.000000   0.000000  -0.000052   0.000000   0.000000
     9  C   -0.014334   0.000000   0.000000   0.000000   0.000000   0.000000
    10  C    0.359168   0.000000   0.000000   0.000000   0.000000   0.000000
    11  H    0.000000   0.000000   0.000000   0.000000   0.000000   0.000000
    12  H    0.000000   0.000000   0.000000   0.000009  -0.000001   0.000000
    13  H    0.000138   0.000000   0.000000   0.000000   0.000000   0.000000
    14  H    0.000043   0.000000   0.000000   0.000000   0.000000   0.000000
    15  H    0.000001   0.000000   0.000000   0.000002   0.000000   0.000000
    16  H    0.000010   0.000000   0.000000   0.000004   0.000000   0.000000
    17  H   -0.004705   0.000000   0.000000   0.000005   0.000000   0.000000
    18  H   -0.050349   0.000000   0.000000   0.000000   0.000000   0.000000
    19  H    0.609865   0.000000   0.000000   0.000000   0.000000   0.000000
    20  H    0.000000   0.433988   0.311503  -0.071058  -0.000188   0.000101
    21  O    0.000000   0.311503   7.886139   0.335360   0.000124  -0.005202
    22  C    0.000000  -0.071058   0.335360   4.938685  -0.027935  -0.000699
    23  O    0.000000  -0.000188   0.000124  -0.027935   7.710672   0.369148
    24  C    0.000000   0.000101  -0.005202  -0.000699   0.369148   4.863593
    25  C    0.000000   0.006691  -0.022922   0.308895   0.351096  -0.087927
    26  H    0.000000  -0.000313   0.002170  -0.049122  -0.034845  -0.006369
    27  C    0.000000  -0.000250   0.001384  -0.019833  -0.019401   0.004687
    28  H    0.000000   0.000006  -0.000045   0.000997   0.008301   0.000085
    29  H    0.000000   0.000000  -0.000002   0.000296   0.000638   0.000009
    30  C    0.000000   0.000002  -0.000019   0.001671   0.000233  -0.000364
    31  O    0.000000  -0.000001   0.000012  -0.001794   0.000063   0.000014
    32  H    0.000000   0.000000  -0.000006   0.000506  -0.000005  -0.000001
    33  H    0.000000   0.000000   0.000000  -0.000401  -0.000020   0.000007
    34  O    0.000000  -0.000023   0.000019  -0.000098   0.000118  -0.000074
    35  C   -0.000001   0.000911   0.002735  -0.037381  -0.000204  -0.000010
    36  H    0.000000   0.000389   0.001414  -0.036445   0.000025   0.000017
    37  C    0.000000  -0.006452  -0.016034   0.249089   0.002543  -0.000080
    38  O    0.000000   0.029213  -0.009809  -0.023327  -0.000007   0.000000
    39  H    0.000000  -0.001431   0.000244   0.005559   0.000001   0.000000
    40  O   -0.000063  -0.000006  -0.000011   0.002563   0.000000   0.000000
    41  H    0.000001  -0.000020  -0.000042  -0.002532   0.000003   0.000000
    42  H    0.000000  -0.000343  -0.033052   0.333854   0.000533   0.000512
    43  H    0.000000  -0.000030  -0.000001  -0.000795  -0.031393   0.367622
    44  H    0.000000  -0.000008   0.000204  -0.000059  -0.021935   0.379353
    45  H    0.000000   0.000210   0.011658   0.000904  -0.030082   0.367580
             25         26         27         28         29         30
     1  O    0.000000   0.000000   0.000000   0.000000   0.000000   0.000000
     2  O   -0.000006   0.000000   0.000798   0.000053   0.000003  -0.000433
     3  O    0.000000   0.000000   0.000000   0.000000   0.000000  -0.000005
     4  O    0.000000   0.000000   0.000000   0.000000   0.000000   0.000000
     5  C    0.000000   0.000000   0.000000   0.000000   0.000000   0.000000
     6  C    0.000000   0.000000   0.000004   0.000000   0.000000   0.000019
     7  C    0.000018  -0.000001   0.000104   0.000011   0.000023  -0.000640
     8  C   -0.000037   0.000003  -0.000112   0.000010   0.000001  -0.000003
     9  C    0.000000   0.000000   0.000016   0.000000   0.000000  -0.000007
    10  C    0.000000   0.000000   0.000000   0.000000   0.000000   0.000000
    11  H    0.000000   0.000000   0.000000   0.000000   0.000000  -0.000003
    12  H    0.000369  -0.000009  -0.002354  -0.000651  -0.000026   0.000486
    13  H    0.000000   0.000000   0.000000   0.000000   0.000000   0.000000
    14  H    0.000000   0.000000   0.000000   0.000000   0.000000   0.000000
    15  H   -0.000020  -0.000001  -0.000223  -0.000003  -0.000014   0.001374
    16  H   -0.000002   0.000000   0.000009   0.000000   0.000000  -0.000003
    17  H    0.000000   0.000000   0.000003   0.000000   0.000000  -0.000010
    18  H    0.000000   0.000000   0.000000   0.000000   0.000000   0.000000
    19  H    0.000000   0.000000   0.000000   0.000000   0.000000   0.000000
    20  H    0.006691  -0.000313  -0.000250   0.000006   0.000000   0.000002
    21  O   -0.022922   0.002170   0.001384  -0.000045  -0.000002  -0.000019
    22  C    0.308895  -0.049122  -0.019833   0.000997   0.000296   0.001671
    23  O    0.351096  -0.034845  -0.019401   0.008301   0.000638   0.000233
    24  C   -0.087927  -0.006369   0.004687   0.000085   0.000009  -0.000364
    25  C    4.835167   0.335789   0.313528  -0.031335  -0.003194  -0.026710
    26  H    0.335789   0.661473  -0.042787   0.006133   0.000043  -0.002814
    27  C    0.313528  -0.042787   4.959235   0.331603  -0.032750   0.304107
    28  H   -0.031335   0.006133   0.331603   0.610345   0.001712  -0.033620
    29  H   -0.003194   0.000043  -0.032750   0.001712   0.592902   0.357868
[...]
 3160,0.00002285,-0.00000262,0.00000112,0.00000263,0.00000004,0.0000033
 1,-0.00000132,0.00000207,0.00000071,-0.00005682,-0.00001520,-0.0000019
 3,-0.00000105,-0.00000077,0.00000029,-0.00000147,-0.00000025,-0.000001
 27,-0.00000113,-0.00000127,-0.00000129,-0.00003222,0.00000299,-0.00000
 790,0.00000148,-0.00000259,0.00000383,0.00000011,-0.00000002,0.0000000
 3,-0.00000096,0.00000077,-0.00000050,-0.00001919,0.00007092,-0.0017612
 4,-0.02439095,-0.03737909,-0.00775232,-0.04861785,-0.02355652,-0.01218
 551,0.00002803,-0.00036959,-0.00016789,-0.00026073,-0.00002162,0.00000
 165,0.00242003,0.00387679,0.00050330,0.00010395,-0.00026445,0.00117524
 ,0.00035619,0.00028359,-0.00037488,0.00000184,0.00000178,0.00000722,0.
 00001135,-0.00003879,-0.00001452,0.00012876,0.00020165,-0.00020545,-0.
 00019992,-0.00006665,0.00026152,0.00016449,-0.00002946,-0.00006328,-0.
 00000581,-0.00007147,0.00000195,-0.00088349,-0.00019391,0.00018475,0.0
 0072250,0.00114414,0.00044255,-0.00231693,0.00289700,-0.00241734,0.002
 23718,0.02052759,0.00920985,0.00102333,-0.00186980,0.00012659,0.000040
 41,-0.00020364,0.00028878,0.00021224,-0.00034349,-0.00005112,-0.000318
 06,-0.00011473,-0.00019901,0.06944616,0.00002716,0.00001042,-0.0000111
 1,-0.00005828,0.00007112,-0.00001378,0.00003602,0.00000099,-0.00000452
 ,0.00001675,0.00000585,0.00000834,-0.00003042,-0.00001134,-0.00000650,
 -0.00001790,0.00001352,-0.00001921,0.00007435,-0.00009617,0.00005320,-
 0.00000161,0.00002003,-0.00009734,-0.00001207,0.00002406,0.00001401,-0
 .00000643,-0.00001738,-0.00001153,-0.00000162,-0.00000740,-0.00000101,
 0.00008285,-0.00000137,-0.00000267,0.00000285,0.00000087,-0.00000067,0
 .00000495,0.00000219,0.00000445,-0.00000299,0.00000665,0.00000256,0.00
 003413,-0.00000366,0.00001610,-0.00000459,0.00000627,-0.00000634,-0.00
 000161,0.00000199,0.00000092,0.00000474,-0.00000106,0.00000435,-0.0004
 8138,0.00009279,-0.00079918,-0.01445912,-0.00595250,0.00046548,-0.0234
 1566,-0.24586090,-0.08581591,-0.00029499,0.00193314,0.00009645,0.00009
 997,0.00008855,0.00010253,0.00086185,-0.00104638,0.00092112,0.00010294
 ,0.00043860,0.00068785,-0.00033024,-0.00018397,-0.00103840,0.00010584,
 0.00006351,-0.00004289,0.00000695,0.00005089,0.00001147,0.00011021,-0.
 00018324,0.00013087,0.00022990,0.00008233,-0.00031843,-0.00019648,0.00
 003135,0.00008141,0.00005224,-0.00001782,-0.00004205,-0.00088539,0.001
 44707,0.00031270,-0.00115195,-0.00153502,0.00086705,0.00242119,-0.0017
 1990,0.00215224,0.00063681,-0.02211509,-0.01114724,-0.00059771,0.00198
 441,0.00017048,-0.00006555,0.00048517,-0.00014962,0.00049737,0.0003181
 3,0.00013952,0.00070988,0.00009028,0.00018880,0.03576496,0.27162956,-0
 .00000770,0.00000142,0.00000799,-0.00001119,0.00001507,0.00000640,-0.0
 0000673,0.00000734,0.00000481,-0.00000202,0.00000220,-0.00000055,0.000
 00180,-0.00000437,0.00000055,0.00000238,-0.00000152,0.00000459,-0.0000
 1506,-0.00002008,-0.00002424,0.00000512,-0.00005091,0.00001061,0.00000
 967,-0.00000889,-0.00000581,0.00000055,0.00000190,0.00000226,0.0000009
 6,-0.00000146,-0.00000329,0.00001966,-0.00000267,0.00000138,-0.0000013
 3,0.00000079,-0.00000015,0.00000187,-0.00000005,0.00000067,-0.00000232
 ,0.00000664,0.00000616,-0.00001215,-0.00000208,-0.00000135,0.00000031,
 -0.00000021,0.00000138,0.00000004,-0.00000019,0.00000079,-0.00000180,0
 .00000142,-0.00000158,-0.00018521,0.00056913,0.00022413,0.00311532,0.0
 0705966,0.00695643,-0.01272737,-0.08480500,-0.08876383,0.00035882,0.00
 036444,0.00479958,-0.00042020,0.00015681,0.00003126,-0.00246464,-0.031
 25298,-0.01669566,0.00083900,0.00030479,-0.00588754,-0.00192893,-0.000
 14552,-0.00068920,0.00037695,0.00002133,-0.00014004,0.00003303,0.00007
 526,0.00014534,-0.00010194,0.00007236,0.00006878,0.00019841,-0.0000965
 9,0.00011423,0.00001790,-0.00000238,-0.00013298,0.00015449,-0.00010389
 ,0.00005560,0.00031378,0.00064420,0.00092822,0.00063993,-0.00039462,0.
 00044978,-0.00162115,0.00184684,-0.00090912,-0.00031189,0.01412525,0.0
 0569848,0.00061313,-0.00137121,0.00165647,0.00005803,-0.00018972,0.000
 26692,-0.00005279,0.00004530,-0.00002779,-0.00005685,-0.00003630,0.000
 03900,0.01298146,0.09309615,0.09173908,-0.00001536,-0.00000143,0.00000
 745,-0.00004503,0.00000630,-0.00000318,-0.00001505,0.00000895,0.000002
 24,-0.00000640,0.00000175,-0.00000595,0.00000992,-0.00000514,0.0000069
 3,0.00001294,0.00000026,-0.00000204,-0.00000321,-0.00001255,-0.0000037
 1,0.00006480,0.00001131,0.00002813,0.00000354,-0.00001652,-0.00000663,
 0.00000243,0.00000487,0.00000457,0.00000695,0.00000157,-0.00000252,0.0
 0006646,0.00001435,0.00000329,-0.00000197,0.00000200,0.00000011,-0.000
 00241,-0.00000041,-0.00000086,0.00000302,-0.00000086,-0.00000266,-0.00
 000499,-0.00000441,-0.00000328,0.00000061,-0.00000152,0.00000118,0.000
 00052,-0.00000039,0.00000056,-0.00000257,0.00000202,-0.00000277,0.0000
 1807,-0.00002792,0.00002020,0.00021646,-0.00007876,-0.00004325,-0.0005
 3508,0.00087402,-0.00014655,-0.02602300,-0.02975380,-0.02475565,-0.051
 72852,-0.01887224,-0.01292931,0.00327722,-0.00755037,0.00197127,0.0006
 4240,0.00171199,0.00043993,0.00021604,-0.00002126,0.00052195,0.0002242
 0,0.00007655,-0.00007563,0.00000832,-0.00000389,0.00002450,-0.00000916
 ,-0.00012533,-0.00022469,-0.00007296,0.00017960,0.00003605,0.00003336,
 -0.00002806,0.00000547,-0.00003649,0.00003936,0.00004020,-0.00002655,0
 .00007670,-0.00009212,0.00013168,-0.00012172,0.00010258,-0.00000672,0.
 00001400,-0.00001884,0.00020175,-0.00009077,-0.00011250,-0.00003613,0.
 00014594,-0.00019893,-0.00001148,-0.00001346,-0.00003108,-0.00012311,0
 .00007318,-0.00003838,-0.00001197,0.00001115,-0.00002046,-0.00001290,0
 .00006271,0.00023276,0.06644878,-0.00001558,0.00000037,0.00001026,-0.0
 0004788,0.00001465,-0.00000049,-0.00001456,0.00001341,0.00000496,-0.00
 000595,0.00000357,-0.00000398,0.00000834,-0.00000881,0.00000534,0.0000
 1316,-0.00000052,-0.00000421,-0.00000324,-0.00001852,-0.00000524,0.000
 06594,0.00001035,0.00002551,0.00000364,-0.00002040,-0.00000804,0.00000
 302,0.00000349,0.00000332,0.00000676,0.00000022,-0.00000392,0.00006582
 ,0.00001013,0.00000014,-0.00000240,0.00000232,0.00000012,-0.00000182,0
 .00000005,-0.00000004,0.00000472,0.00000036,-0.00000099,-0.00000524,-0
 .00000428,-0.00000194,0.00000081,-0.00000120,0.00000061,0.00000022,0.0
 0000030,0.00000123,-0.00000291,0.00000258,-0.00000313,-0.00002776,0.00
 001545,0.00000126,0.00015942,0.00012727,-0.00009984,-0.00051291,-0.000
 23647,0.00010816,-0.00949741,-0.00109604,-0.00264665,-0.02413296,-0.22
 298913,-0.10814068,0.00212516,0.00250595,0.00259474,-0.00127028,0.0006
 6337,-0.00120517,0.00022110,0.00043380,0.00016552,0.00014042,-0.000085
 63,-0.00009885,0.00002691,-0.00001478,0.00001372,-0.00006015,-0.000108
 76,-0.00011219,-0.00010679,0.00011617,0.00004170,0.00001953,-0.0000321
 2,0.00001112,-0.00004183,0.00004404,0.00004783,-0.00010456,0.00010163,
 -0.00011174,0.00013973,-0.00011840,0.00008595,-0.00000614,0.00000048,-
 0.00000421,0.00014739,-0.00011367,0.00002655,-0.00002756,0.00011389,-0
 .00016956,-0.00001012,-0.00001610,-0.00001404,-0.00013269,0.00007970,-
 0.00002985,-0.00001276,0.00000995,-0.00001495,0.00001207,-0.00007525,0
 .00003488,0.03448192,0.23904311,-0.00000474,0.00000142,0.00000245,-0.0
 0001601,0.00001034,-0.00000082,-0.00000300,0.00000746,0.00000203,-0.00
 000036,0.00000270,-0.00000162,0.00000078,-0.00000576,0.00000229,0.0000
 0338,-0.00000029,-0.00000058,-0.00000077,-0.00001147,-0.00000276,0.000
 02088,0.00000457,0.00000902,-0.00000056,-0.00000955,-0.00000252,0.0000
 0019,0.00000037,0.00000074,0.00000244,-0.00000049,-0.00000088,0.000020
 95,0.00000034,0.00000040,-0.00000072,0.00000092,0.,-0.00000019,0.00000
 019,0.00000008,0.00000055,0.00000048,0.00000031,-0.00000097,-0.0000012
 2,0.00000015,0.00000042,0.,-0.00000034,0.00000003,0.00000030,0.0000006
 7,-0.00000116,0.00000129,-0.00000137,0.00002571,0.00009252,0.00003301,
 -0.00012789,0.00033503,-0.00000006,0.00000389,0.00018094,-0.00016082,-
 0.01087699,-0.00373768,-0.00143768,-0.01395727,-0.10760712,-0.11980175
 ,0.00103369,-0.00302142,0.00093149,-0.00015597,0.00094457,-0.00027343,
 0.00003208,0.00017863,0.00013670,0.00013604,0.00003419,-0.00003585,0.0
 0001172,-0.00001270,0.00000187,-0.00003427,-0.00007938,-0.00001108,0.0
 0001238,0.00007017,-0.00000241,0.00000785,-0.00000802,-0.00001228,-0.0
 0000207,0.00001603,0.00001378,0.00001315,0.00007906,-0.00003800,0.0000
 4426,-0.00004838,0.00002487,-0.00000961,0.00002227,-0.00001040,0.00006
 479,-0.00006309,-0.00006998,-0.00001666,0.00007139,-0.00006971,-0.0000
 1032,-0.00000974,-0.00001687,-0.00005404,0.00004128,-0.00000438,-0.000
 00105,0.00000609,-0.00000520,0.00002462,0.00000738,0.00013012,0.022778
 62,0.12220580,0.12335454,-0.00002679,-0.00000364,0.00001329,-0.0001120
 7,0.00000312,-0.00000680,-0.00002479,0.00001379,0.00000241,-0.00001031
 ,0.00000223,-0.00001059,0.00001616,-0.00000765,0.00001239,0.00002360,0
 .00000134,-0.00000520,-0.00000295,-0.00002474,-0.00000145,0.00011282,0
 .00001562,0.00004762,0.00000545,-0.00002667,-0.00001063,0.00000345,0.0
 0000860,0.00000805,0.00001237,0.00000400,-0.00000549,0.00015343,0.0000
 4637,-0.00000290,-0.00000313,0.00000360,0.00000005,-0.00000493,-0.0000
 0047,-0.00000172,0.00000746,-0.00000181,-0.00000607,-0.00000946,-0.000
 00748,-0.00000658,0.00000054,-0.00000244,0.00000224,0.00000088,-0.0000
 0075,0.00000068,-0.00000437,0.00000322,-0.00000468,0.00018045,-0.00001
 886,0.00006299,0.00062736,-0.00027596,0.00045621,-0.00137269,0.0005856
 3,0.00018436,-0.02288576,0.03197060,-0.02314889,-0.05962352,0.04256650
 ,-0.02842797,-0.00449043,-0.00334529,-0.00081074,0.00007864,0.00017248
 ,0.00019796,0.00031331,0.00125609,-0.00066879,0.00005339,-0.00011475,0
 .00001167,0.00001471,0.00000694,0.00001526,-0.00018729,-0.00031007,-0.
 00006418,-0.00008513,0.00015068,0.00000733,0.00004510,-0.00005209,0.00
 001838,-0.00009958,0.00010454,0.00008127,-0.00076773,0.00001967,-0.000
 40836,0.00020614,-0.00032076,0.00033526,0.00002599,-0.00001467,-0.0000
 0081,0.00029348,-0.00020374,-0.00007137,-0.00000598,0.00019095,-0.0003
 0042,-0.00000486,-0.00002052,-0.00004319,-0.00019007,0.00014125,-0.000
 07774,-0.00001909,0.00002126,-0.00004270,0.00006461,0.00000586,-0.0000
 3800,0.00239883,-0.00211928,0.00298300,0.07892705,0.00001398,0.0000026
 5,-0.00000803,0.00004450,0.00000101,-0.00000084,0.00001484,-0.00000513
 ,-0.00000215,0.00000737,-0.00000011,0.00000401,-0.00001038,0.00000165,
 -0.00000491,-0.00001226,-0.00000066,0.00000301,0.00000221,0.00000747,0
 .00000320,-0.00005482,-0.00000862,-0.00002370,-0.00000450,0.00001183,0
 .00000615,-0.00000349,-0.00000438,-0.00000352,-0.00000583,-0.00000206,
 0.00000306,-0.00006350,-0.00001942,0.00000227,0.00000180,-0.00000162,-
 0.00000023,0.00000222,0.00000045,0.00000069,-0.00000334,0.00000051,0.0
 0000240,0.00000426,0.00000371,0.00000290,-0.00000038,0.00000164,-0.000
 00138,-0.00000038,0.00000023,-0.00000037,0.00000203,-0.00000137,0.0000
 0203,0.00006905,0.00004311,-0.00003830,-0.00003876,-0.00004255,0.00024
 252,0.00007108,0.00000515,-0.00009224,0.00050890,0.00536616,-0.0030595
 7,0.05305704,-0.22263837,0.11776941,-0.00116744,0.00152420,-0.00085940
 ,-0.00005739,0.00054072,0.00003809,-0.00023788,0.00017708,0.00013619,0
 .00000659,-0.00003448,0.00002055,-0.00001676,0.,0.00001028,-0.00003613
 ,0.00005033,0.00007199,0.00005939,-0.00006970,-0.00001406,-0.00001878,
 0.00001972,-0.00000990,0.00003193,-0.00001937,-0.00000775,0.00027557,-
 0.00001269,0.00014478,-0.00009150,0.00010015,-0.00008736,-0.00000284,0
 .00000214,-0.00000563,-0.00003720,0.00007390,-0.00005995,0.00002640,-0
 .00004823,0.00008406,0.00000182,0.00000854,-0.00000460,0.00009931,-0.0
 0005327,0.00003134,0.00000986,-0.00000638,0.00001473,0.00002508,0.0000
 1614,0.00004322,0.00524991,-0.01896910,0.01499700,-0.05738188,0.233425
 42,-0.00001638,-0.00000298,0.00000633,-0.00004530,-0.00000467,-0.00000
 307,-0.00001683,0.00000708,0.00000150,-0.00000748,0.00000060,-0.000006
 55,0.00001194,-0.00000263,0.00000754,0.00001370,-0.00000051,-0.0000003
 1,-0.00000550,-0.00000359,-0.00000404,0.00006502,0.00001405,0.00003368
 ,0.00000290,-0.00001639,-0.00000695,0.00000296,0.00000596,0.00000505,0
 .00000692,0.00000298,-0.00000163,0.00006665,0.00002357,0.00000227,-0.0
 0000185,0.00000171,0.00000022,-0.00000297,-0.00000058,-0.00000155,0.00
 000359,-0.00000199,-0.00000337,-0.00000497,-0.00000439,-0.00000426,0.0
 0000071,-0.00000201,0.00000153,0.00000069,-0.00000049,0.00000029,-0.00
 000265,0.00000179,-0.00000281,-0.00027962,0.00011593,-0.00000255,-0.00
 028030,0.00055384,-0.00099143,0.00064865,0.00022449,0.00013645,-0.0077
 0230,0.00520855,-0.00305632,-0.03347162,0.11555082,-0.12979299,0.00026
 923,-0.00226745,0.00116816,-0.00000310,0.00030289,-0.00004073,0.000222
 67,0.00037843,-0.00001942,0.00005350,-0.00001062,0.00002247,0.00000450
 ,-0.00000163,0.00000487,-0.00008976,-0.00013764,-0.00003831,-0.0000400
 8,0.00007884,0.00000483,0.00002560,-0.00002482,0.00000379,-0.00004121,
 0.00004707,0.00003597,-0.00018982,0.00003072,-0.00010417,0.00014462,-0
 .00005930,0.00005220,0.00001026,-0.00000887,-0.00000358,-0.00003605,-0
 .00011146,-0.00000856,-0.00008777,0.00007836,-0.00012374,-0.00000783,-
 0.00002053,0.00000522,-0.00014778,0.00005932,-0.00003295,-0.00001609,0
 .00000619,-0.00001549,-0.00004257,-0.00005641,0.00001538,0.00485778,-0
 .01401099,0.01049110,0.04241452,-0.12827428,0.13456226,-0.00001784,-0.
 00000072,0.00000294,-0.00008611,0.00001417,-0.00001690,-0.00001383,0.0
 0001066,-0.00000377,-0.00000431,0.00000364,-0.00001334,0.00000971,-0.0
 0000949,0.00001428,0.00001474,0.00000268,-0.00000227,0.00000495,-0.000
 02990,0.00001132,0.00008218,0.00000471,0.00002532,0.00000386,-0.000016
 45,-0.00000268,-0.00000145,0.00000457,0.00000773,0.00001119,0.00000224
 ,-0.00000102,0.00012034,0.00003015,0.00000962,-0.00000172,0.00000306,-
 0.00000022,-0.00000400,-0.00000069,-0.00000187,0.00000687,-0.00000221,
 -0.00000655,-0.00000713,-0.00000607,-0.00000630,-0.00000019,-0.0000006
 2,0.00000191,0.00000061,-0.00000122,-0.00000018,-0.00000271,0.00000280
 ,-0.00000346,0.00057209,-0.00022642,-0.00009508,0.00069782,-0.00042686
 ,0.00055506,-0.00196780,0.00031442,-0.00006455,-0.03940082,-0.00229339
 ,0.02250562,-0.11339723,-0.00189798,0.10843735,0.00258237,-0.00424072,
 0.00378631,-0.00032324,0.00068816,-0.00032576,-0.00022386,0.00035161,0
 .00002791,0.00038113,0.00017674,-0.00025746,0.00002882,-0.00002845,-0.
 00002077,-0.00000915,-0.00021291,-0.00013955,-0.00010560,0.00025445,-0
 .00002789,0.00003722,-0.00003765,0.00004883,-0.00007728,0.00006032,0.0
 0004599,-0.00047937,0.00025276,-0.00061223,-0.00001788,-0.00036863,0.0
 0037357,-0.00000827,-0.00000800,0.00000297,0.00034991,-0.00009481,-0.0
 0002253,0.00013016,0.00010158,-0.00017273,0.00000734,0.00000806,-0.000
 04372,-0.00006267,0.00013772,-0.00009081,-0.00000007,0.00003678,-0.000
 06152,0.00013608,0.00006351,-0.00000609,0.00474276,0.00051670,-0.00194
 679,0.00636570,-0.00033971,-0.00628660,0.13992666,-0.00001398,-0.00000
 266,0.00000758,-0.00003089,-0.00000616,0.00000116,-0.00001608,0.000006
 01,0.00000380,-0.00000765,-0.00000017,-0.00000330,0.00001087,-0.000001
 04,0.00000414,0.00001195,-0.00000101,-0.00000013,-0.00000730,0.0000007
 9,-0.00000943,0.00005664,0.00001692,0.00003205,0.00000254,-0.00001509,
 -0.00000821,0.00000405,0.00000596,0.00000375,0.00000487,0.00000213,-0.
 00000216,0.00004517,0.00001621,-0.00000044,-0.00000187,0.00000122,0.00
 000027,-0.00000211,-0.00000044,-0.00000099,0.00000238,-0.00000094,-0.0
 0000137,-0.00000381,-0.00000343,-0.00000284,0.00000088,-0.00000224,0.0
 0000113,0.00000064,-0.00000021,0.00000052,-0.00000238,0.00000129,-0.00
 000236,-0.00043289,-0.00002524,0.00020325,0.00001540,-0.00101547,0.000
 81953,0.00073723,0.00074455,-0.00050996,-0.00330098,0.00343004,0.00403
 017,-0.00476385,-0.05282088,0.00633925,0.00034839,0.00003091,-0.000815
 94,-0.00012700,-0.00009891,-0.00039522,0.00005873,0.00002827,0.0000221
 4,0.00002402,-0.00000399,0.00002265,0.00000814,-0.00000589,0.00001391,
 -0.00003037,-0.00004763,-0.00006311,-0.00002474,0.00004611,0.00003863,
 0.00001930,-0.00001967,-0.00001177,-0.00001804,0.00002105,0.00002205,-
 0.00007372,0.00000964,0.00000611,0.00014715,0.00002315,-0.00003548,0.0
 0001423,0.00000091,-0.00000262,0.00001547,-0.00026297,0.00005090,-0.00
 013183,0.00012113,-0.00015971,-0.00002216,-0.00001785,-0.00000260,-0.0
 0015625,0.00003677,-0.00001900,-0.00002198,-0.00000285,-0.00000340,-0.
 00017918,-0.00008744,-0.00000576,0.01368041,0.00059258,-0.02469643,-0.
 01304078,0.00055362,0.02233102,0.00720140,0.04875297,0.00000907,0.0000
 0088,-0.00000067,0.00001939,-0.00000073,0.00000428,0.00000918,-0.00000
 503,0.00000082,0.00000350,-0.00000135,0.00000621,-0.00000726,0.0000028
 9,-0.00000667,-0.00000677,0.00000082,-0.00000210,0.00000349,0.00000191
 ,0.00000169,-0.00003261,-0.00000915,-0.00001893,-0.00000068,0.00001014
 ,0.00000269,-0.00000056,-0.00000283,-0.00000372,-0.00000430,-0.0000014
 3,-0.00000063,-0.00002769,-0.00000825,-0.00000307,0.00000088,-0.000000
 97,-0.00000013,0.00000153,0.00000053,0.00000123,-0.00000141,0.00000115
 ,0.00000188,0.00000238,0.00000251,0.00000205,-0.00000054,0.00000096,-0
 .00000104,-0.00000046,0.00000054,-0.00000005,0.00000155,-0.00000147,0.
 00000182,-0.00009590,0.00029957,-0.00059039,-0.00031825,0.00183343,-0.
 00268045,0.00006946,-0.00112688,0.00057504,-0.00577211,-0.00020503,0.0
 1403459,0.11708366,0.00557421,-0.24323508,0.00027441,0.00053259,0.0016
 1896,-0.00026709,-0.00005148,-0.00018934,-0.00026392,-0.00002576,0.000
 04868,-0.00002529,0.00007726,-0.00009944,-0.00000400,0.00000206,0.0000
 0987,0.00001865,0.00005745,-0.00001709,0.00001832,-0.00002716,0.000006
 56,-0.00001252,0.00001054,0.00000062,0.00001779,-0.00001673,-0.0000031
 1,0.00003946,0.00001513,-0.00003020,-0.00011022,0.00001919,0.00000441,
 -0.00000612,-0.00000530,0.00000862,-0.00014033,0.00009954,-0.00008903,
 0.00000809,-0.00012099,0.00017834,0.00002566,0.00000687,0.00002613,0.0
 0009257,-0.00001862,0.00002394,0.00002046,0.00000513,-0.00000042,0.000
 05705,0.00004936,-0.00008329,0.00763521,0.00130200,-0.01317482,0.00731
 032,-0.00107574,-0.01229632,-0.12562407,-0.00720179,0.25596757\\0.0000
 0176,0.00001109,0.00001445,-0.00000750,0.00000265,0.00000642,-0.000008
 03,0.00000382,0.00000073,0.00000778,-0.00001371,-0.00000644,0.00000436
 ,0.00001544,0.00001303,-0.00002390,0.00001572,-0.00001144,0.00002532,0
 .00000983,-0.00001624,-0.00000349,-0.00002286,0.00003751,-0.00000704,0
 .00001585,-0.00002212,0.00000336,-0.00000115,0.00000057,-0.00000077,0.
 00001356,0.00000253,0.00001775,-0.00000114,0.00001335,0.00000455,0.000
 01280,0.00000148,0.00000513,0.00000494,0.00001432,0.00000485,0.0000057
 1,0.00000482,-0.00000732,-0.00000730,-0.00000170,0.00000391,-0.0000049
 7,-0.00000317,-0.00000712,-0.00000192,-0.00000145,0.00000508,0.0000008
 9,-0.00000069,-0.00000120,-0.00001182,-0.00000523,-0.00000243,-0.00001
 035,-0.00000525,-0.00000252,-0.00001072,-0.00000152,-0.00000111,-0.000
 00149,0.00000009,-0.00000232,-0.00000083,-0.00000030,0.00000188,0.0000
 0410,0.00000207,0.00000250,-0.00000236,-0.00000599,-0.00000866,-0.0000
 0161,-0.00000407,-0.00000125,0.00000478,0.00000599,0.00000388,0.000006
 36,-0.00000280,0.00000173,0.00000602,0.00000150,0.00000572,0.00000357,
 -0.00000775,0.00000991,-0.00000162,-0.00000228,0.00000397,0.00001117,0
 .00000083,-0.00000830,-0.00000519,0.00000691,-0.00000519,0.00000236,0.
 00000513,0.00000273,-0.00000372,-0.00000357,-0.00000765,-0.00000701,-0
 .00000517,0.00000607,-0.00001151,-0.00000029,-0.00000642,-0.00001322,-
 0.00000694,-0.00000282,0.00000520,-0.00001314,-0.00000188,-0.00000473,
 -0.00000060,-0.00000416,-0.00000669,0.00000150,0.00000162,-0.00000183,
 -0.00000325,-0.00000124,-0.00000167,0.00000091,-0.00000154,-0.00000640
 ,-0.00000271\\\@


 LIFE CAN ONLY BE UNDERSTOOD BACKWARD, BUT MUST
 BE LIVED FORWARD. -- KIRKEGAARD
 Job cpu time:  1 days  7 hours 24 minutes 16.2 seconds.
 File lengths (MBytes):  RWF=   2350 Int=      0 D2E=      0 Chk=     46 Scr=      1
 Normal termination of Gaussian 09 at Fri Jul  1 20:06:40 2011.
