 Entering Gaussian System, Link 0=g09
 Initial command:
 /opt/software/gaussian/g09/l1.exe /scratch/Gau-4264.inp -scrdir=/scratch/
 Entering Link 1 = /opt/software/gaussian/g09/l1.exe PID=      4266.
  
 Copyright (c) 1988,1990,1992,1993,1995,1998,2003,2009,2010,
            Gaussian, Inc.  All Rights Reserved.
  
 This is part of the Gaussian(R) 09 program.  It is based on
 the Gaussian(R) 03 system (copyright 2003, Gaussian, Inc.),
 the Gaussian(R) 98 system (copyright 1998, Gaussian, Inc.),
 the Gaussian(R) 94 system (copyright 1995, Gaussian, Inc.),
 the Gaussian 92(TM) system (copyright 1992, Gaussian, Inc.),
 the Gaussian 90(TM) system (copyright 1990, Gaussian, Inc.),
 the Gaussian 88(TM) system (copyright 1988, Gaussian, Inc.),
 the Gaussian 86(TM) system (copyright 1986, Carnegie Mellon
 University), and the Gaussian 82(TM) system (copyright 1983,
 Carnegie Mellon University). Gaussian is a federally registered
 trademark of Gaussian, Inc.
  
 This software contains proprietary and confidential information,
 including trade secrets, belonging to Gaussian, Inc.
  
 This software is provided under written license and may be
 used, copied, transmitted, or stored only in accord with that
 written license.
  
 The following legend is applicable only to US Government
 contracts under FAR:
  
                    RESTRICTED RIGHTS LEGEND
  
 Use, reproduction and disclosure by the US Government is
 subject to restrictions as set forth in subparagraphs (a)
 and (c) of the Commercial Computer Software - Restricted
 Rights clause in FAR 52.227-19.
  
 Gaussian, Inc.
 340 Quinnipiac St., Bldg. 40, Wallingford CT 06492
  
  
 ---------------------------------------------------------------
 Warning -- This program may not be used in any manner that
 competes with the business of Gaussian, Inc. or will provide
 assistance to any competitor of Gaussian, Inc.  The licensee
 of this program is prohibited from giving any competitor of
 Gaussian, Inc. access to this program.  By using this program,
 the user acknowledges that Gaussian, Inc. is engaged in the
 business of creating and licensing software in the field of
 computational chemistry and represents and warrants to the
 licensee that it is not a competitor of Gaussian, Inc. and that
 it will not use this program in any manner prohibited above.
 ---------------------------------------------------------------
  

 Cite this work as:
 Gaussian 09, Revision B.01,
 M. J. Frisch, G. W. Trucks, H. B. Schlegel, G. E. Scuseria, 
 M. A. Robb, J. R. Cheeseman, G. Scalmani, V. Barone, B. Mennucci, 
 G. A. Petersson, H. Nakatsuji, M. Caricato, X. Li, H. P. Hratchian, 
 A. F. Izmaylov, J. Bloino, G. Zheng, J. L. Sonnenberg, M. Hada, 
 M. Ehara, K. Toyota, R. Fukuda, J. Hasegawa, M. Ishida, T. Nakajima, 
 Y. Honda, O. Kitao, H. Nakai, T. Vreven, J. A. Montgomery, Jr., 
 J. E. Peralta, F. Ogliaro, M. Bearpark, J. J. Heyd, E. Brothers, 
 K. N. Kudin, V. N. Staroverov, T. Keith, R. Kobayashi, J. Normand, 
 K. Raghavachari, A. Rendell, J. C. Burant, S. S. Iyengar, J. Tomasi, 
 M. Cossi, N. Rega, J. M. Millam, M. Klene, J. E. Knox, J. B. Cross, 
 V. Bakken, C. Adamo, J. Jaramillo, R. Gomperts, R. E. Stratmann, 
 O. Yazyev, A. J. Austin, R. Cammi, C. Pomelli, J. W. Ochterski, 
 R. L. Martin, K. Morokuma, V. G. Zakrzewski, G. A. Voth, 
 P. Salvador, J. J. Dannenberg, S. Dapprich, A. D. Daniels, 
 O. Farkas, J. B. Foresman, J. V. Ortiz, J. Cioslowski, 
 and D. J. Fox, Gaussian, Inc., Wallingford CT, 2010.
 
 ******************************************
 Gaussian 09:  AM64L-G09RevB.01 12-Aug-2010
                10-Sep-2011 
 ******************************************
 %chk=gaussian/init2prod/init_water+pos4.chk
 %mem=30GB
 %nproc=8
 Will use up to    8 processors via shared memory.
 ----------------------------------------------------------------------
 # opt b3lyp/6-31+g(2df,p) nosymm scrf=(solvent=water) scf=(xqc,conver=
 6,maxcycle=1000) geom=allcheck guess=read
 ----------------------------------------------------------------------
 1/14=-1,18=20,19=15,26=3,29=7,38=1/1,3;
 2/9=110,12=2,15=1,40=1/2;
 3/5=1,6=6,7=114,11=2,14=-4,16=1,25=1,30=1,70=2201,71=1,72=1,74=-5,116=-2/1,2,3;
 4/5=1/1;
 5/5=2,6=6,7=1000,8=3,13=1,38=6,53=1/2,8;
 6/7=2,8=2,9=2,10=2,28=1/1;
 7/30=1/1,2,3,16;
 1/14=-1,18=20,19=15/3(2);
 2/9=110,15=1/2;
 99//99;
 2/9=110,15=1/2;
 3/5=1,6=6,7=114,11=2,14=-2,16=1,25=1,30=1,70=2205,71=1,72=1,74=-5/1,2,3;
 4/5=5,16=3/1;
 5/5=2,6=6,7=1000,8=3,13=1,38=5,53=1/2,8;
 7/30=1/1,2,3,16;
 1/14=-1,18=20,19=15/3(-5);
 2/9=110,15=1/2;
 6/7=2,8=2,9=2,10=2,19=2,28=1/1;
 99/9=1/99;
 --------------------------------------------------------
 init_THF+pos4 from init2_THF+pos4.out by removing methyl
 --------------------------------------------------------
 Redundant internal coordinates taken from checkpoint file:
 gaussian/init2prod/init_water+pos4.chk
 Charge =  1 Multiplicity = 1
 O,0,-0.1091920391,-0.0226645586,2.4207980174
 O,0,2.4227526343,-0.0825876166,3.8826428182
 O,0,4.374558459,1.7837781414,2.8393711001
 O,0,1.9266197302,1.5165774803,0.070046662
 O,0,4.4922724158,0.5334802061,-0.6698332539
 C,0,1.0622755678,0.7768519881,0.5770755354
 C,0,1.1833139495,0.0958173582,1.8920481598
 C,0,2.1982421246,0.7934467697,2.8027325515
 C,0,3.484433019,1.0586595886,2.0099012479
 C,0,3.2144429457,1.9249159964,0.7684235765
 C,0,4.2766073698,1.8857111881,-0.3080549697
 H,0,-0.0880428196,-0.6528059888,3.1527031304
 H,0,2.9555892652,0.3723497692,4.5471516844
 H,0,5.1104486254,0.4966365552,-1.4083696655
 H,0,0.1663430126,0.6250518707,-0.0288943161
 H,0,1.5983665463,-0.8984917654,1.6227740573
 H,0,1.7728025258,1.7447502484,3.1513599549
 H,0,3.919650675,0.1018552912,1.7077796932
 H,0,3.008251376,2.9573194376,1.0574221928
 H,0,5.1770916615,2.3509865837,0.1148703093
 H,0,3.9462311572,2.489284453,-1.1613617008
 H,0,5.256876193,1.3985092755,2.7936407029
 Recover connectivity data from disk.

 GradGradGradGradGradGradGradGradGradGradGradGradGradGradGradGradGradGrad
 Berny optimization.
 Initialization pass.
                           ----------------------------
                           !    Initial Parameters    !
                           ! (Angstroms and Degrees)  !
 --------------------------                            --------------------------
 ! Name  Definition              Value          Derivative Info.                !
 --------------------------------------------------------------------------------
 ! R1    R(1,7)                  1.4015         estimate D2E/DX2                !
 ! R2    R(1,12)                 0.966          estimate D2E/DX2                !
 ! R3    R(2,8)                  1.4086         estimate D2E/DX2                !
 ! R4    R(2,13)                 0.9656         estimate D2E/DX2                !
 ! R5    R(3,9)                  1.4164         estimate D2E/DX2                !
 ! R6    R(3,22)                 0.9639         estimate D2E/DX2                !
 ! R7    R(4,6)                  1.2455         estimate D2E/DX2                !
 ! R8    R(4,10)                 1.5208         estimate D2E/DX2                !
 ! R9    R(5,11)                 1.4163         estimate D2E/DX2                !
 ! R10   R(5,14)                 0.9638         estimate D2E/DX2                !
 ! R11   R(6,7)                  1.4858         estimate D2E/DX2                !
 ! R12   R(6,15)                 1.0922         estimate D2E/DX2                !
 ! R13   R(7,8)                  1.5317         estimate D2E/DX2                !
 ! R14   R(7,16)                 1.1106         estimate D2E/DX2                !
 ! R15   R(8,9)                  1.534          estimate D2E/DX2                !
 ! R16   R(8,17)                 1.0989         estimate D2E/DX2                !
 ! R17   R(9,10)                 1.5377         estimate D2E/DX2                !
 ! R18   R(9,18)                 1.0937         estimate D2E/DX2                !
 ! R19   R(10,11)                1.5128         estimate D2E/DX2                !
 ! R20   R(10,19)                1.0917         estimate D2E/DX2                !
 ! R21   R(11,20)                1.0983         estimate D2E/DX2                !
 ! R22   R(11,21)                1.0962         estimate D2E/DX2                !
 ! A1    A(7,1,12)             108.711          estimate D2E/DX2                !
 ! A2    A(8,2,13)             108.8162         estimate D2E/DX2                !
 ! A3    A(6,4,10)             124.0666         estimate D2E/DX2                !
 ! A4    A(11,5,14)            109.2625         estimate D2E/DX2                !
 ! A5    A(4,6,7)              125.167          estimate D2E/DX2                !
 ! A6    A(4,6,15)             115.2098         estimate D2E/DX2                !
 ! A7    A(7,6,15)             119.6128         estimate D2E/DX2                !
 ! A8    A(1,7,6)              107.3087         estimate D2E/DX2                !
 ! A9    A(1,7,8)              115.1683         estimate D2E/DX2                !
 ! A10   A(1,7,16)             111.1274         estimate D2E/DX2                !
 ! A11   A(6,7,8)              111.8027         estimate D2E/DX2                !
 ! A12   A(6,7,16)             103.0752         estimate D2E/DX2                !
 ! A13   A(8,7,16)             107.7156         estimate D2E/DX2                !
 ! A14   A(2,8,7)              106.1516         estimate D2E/DX2                !
 ! A15   A(2,8,9)              111.7236         estimate D2E/DX2                !
 ! A16   A(2,8,17)             110.9093         estimate D2E/DX2                !
 ! A17   A(7,8,9)              109.0882         estimate D2E/DX2                !
 ! A18   A(7,8,17)             109.0496         estimate D2E/DX2                !
 ! A19   A(9,8,17)             109.8107         estimate D2E/DX2                !
 ! A20   A(3,9,8)              108.2257         estimate D2E/DX2                !
 ! A21   A(3,9,10)             107.1423         estimate D2E/DX2                !
 ! A22   A(3,9,18)             111.0735         estimate D2E/DX2                !
 ! A23   A(8,9,10)             111.5583         estimate D2E/DX2                !
 ! A24   A(8,9,18)             108.9757         estimate D2E/DX2                !
 ! A25   A(10,9,18)            109.8572         estimate D2E/DX2                !
 ! A26   A(4,10,9)             111.6024         estimate D2E/DX2                !
 ! A27   A(4,10,11)            105.119          estimate D2E/DX2                !
 ! A28   A(4,10,19)            102.4468         estimate D2E/DX2                !
 ! A29   A(9,10,11)            115.8886         estimate D2E/DX2                !
 ! A30   A(9,10,19)            110.6199         estimate D2E/DX2                !
 ! A31   A(11,10,19)           110.2111         estimate D2E/DX2                !
 ! A32   A(5,11,10)            108.2656         estimate D2E/DX2                !
 ! A33   A(5,11,20)            112.2092         estimate D2E/DX2                !
 ! A34   A(5,11,21)            111.886          estimate D2E/DX2                !
 ! A35   A(10,11,20)           106.8985         estimate D2E/DX2                !
 ! A36   A(10,11,21)           109.1502         estimate D2E/DX2                !
 ! A37   A(20,11,21)           108.277          estimate D2E/DX2                !
 ! A38   L(9,3,22,10,-1)       153.5692         estimate D2E/DX2                !
 ! A39   L(9,3,22,10,-2)       269.428          estimate D2E/DX2                !
 ! D1    D(12,1,7,6)           165.6038         estimate D2E/DX2                !
 ! D2    D(12,1,7,8)           -69.2078         estimate D2E/DX2                !
 ! D3    D(12,1,7,16)           53.613          estimate D2E/DX2                !
 ! D4    D(13,2,8,7)          -171.683          estimate D2E/DX2                !
 ! D5    D(13,2,8,9)            69.5089         estimate D2E/DX2                !
 ! D6    D(13,2,8,17)          -53.3628         estimate D2E/DX2                !
 ! D7    D(10,4,6,7)            -4.6587         estimate D2E/DX2                !
 ! D8    D(10,4,6,15)          176.5175         estimate D2E/DX2                !
 ! D9    D(6,4,10,9)            13.9123         estimate D2E/DX2                !
 ! D10   D(6,4,10,11)          140.313          estimate D2E/DX2                !
 ! D11   D(6,4,10,19)         -104.4657         estimate D2E/DX2                !
 ! D12   D(14,5,11,10)         175.1093         estimate D2E/DX2                !
 ! D13   D(14,5,11,20)         -67.1557         estimate D2E/DX2                !
 ! D14   D(14,5,11,21)          54.7865         estimate D2E/DX2                !
 ! D15   D(4,6,7,1)            149.4928         estimate D2E/DX2                !
 ! D16   D(4,6,7,8)             22.305          estimate D2E/DX2                !
 ! D17   D(4,6,7,16)           -93.1223         estimate D2E/DX2                !
 ! D18   D(15,6,7,1)           -31.7313         estimate D2E/DX2                !
 ! D19   D(15,6,7,8)          -158.9191         estimate D2E/DX2                !
 ! D20   D(15,6,7,16)           85.6536         estimate D2E/DX2                !
 ! D21   D(1,7,8,2)             68.8876         estimate D2E/DX2                !
 ! D22   D(1,7,8,9)           -170.5832         estimate D2E/DX2                !
 ! D23   D(1,7,8,17)           -50.6559         estimate D2E/DX2                !
 ! D24   D(6,7,8,2)           -168.2911         estimate D2E/DX2                !
 ! D25   D(6,7,8,9)            -47.7618         estimate D2E/DX2                !
 ! D26   D(6,7,8,17)            72.1655         estimate D2E/DX2                !
 ! D27   D(16,7,8,2)           -55.7359         estimate D2E/DX2                !
 ! D28   D(16,7,8,9)            64.7934         estimate D2E/DX2                !
 ! D29   D(16,7,8,17)         -175.2793         estimate D2E/DX2                !
 ! D30   D(2,8,9,3)            -66.877          estimate D2E/DX2                !
 ! D31   D(2,8,9,10)           175.4937         estimate D2E/DX2                !
 ! D32   D(2,8,9,18)            54.0226         estimate D2E/DX2                !
 ! D33   D(7,8,9,3)            176.0746         estimate D2E/DX2                !
 ! D34   D(7,8,9,10)            58.4452         estimate D2E/DX2                !
 ! D35   D(7,8,9,18)           -63.0258         estimate D2E/DX2                !
 ! D36   D(17,8,9,3)            56.6181         estimate D2E/DX2                !
 ! D37   D(17,8,9,10)          -61.0112         estimate D2E/DX2                !
 ! D38   D(17,8,9,18)          177.5177         estimate D2E/DX2                !
 ! D39   D(3,9,10,4)          -159.1042         estimate D2E/DX2                !
 ! D40   D(3,9,10,11)           80.6308         estimate D2E/DX2                !
 ! D41   D(3,9,10,19)          -45.7336         estimate D2E/DX2                !
 ! D42   D(8,9,10,4)           -40.824          estimate D2E/DX2                !
 ! D43   D(8,9,10,11)         -161.089          estimate D2E/DX2                !
 ! D44   D(8,9,10,19)           72.5466         estimate D2E/DX2                !
 ! D45   D(18,9,10,4)           80.1343         estimate D2E/DX2                !
 ! D46   D(18,9,10,11)         -40.1307         estimate D2E/DX2                !
 ! D47   D(18,9,10,19)        -166.4951         estimate D2E/DX2                !
 ! D48   D(4,10,11,5)          -69.1391         estimate D2E/DX2                !
 ! D49   D(4,10,11,20)         169.7781         estimate D2E/DX2                !
 ! D50   D(4,10,11,21)          52.8764         estimate D2E/DX2                !
 ! D51   D(9,10,11,5)           54.5736         estimate D2E/DX2                !
 ! D52   D(9,10,11,20)         -66.5092         estimate D2E/DX2                !
 ! D53   D(9,10,11,21)         176.5891         estimate D2E/DX2                !
 ! D54   D(19,10,11,5)        -178.8561         estimate D2E/DX2                !
 ! D55   D(19,10,11,20)         60.0611         estimate D2E/DX2                !
 ! D56   D(19,10,11,21)        -56.8406         estimate D2E/DX2                !
 --------------------------------------------------------------------------------
 Trust Radius=3.00D-01 FncErr=1.00D-07 GrdErr=1.00D-06
 Number of steps in this run=    127 maximum allowed number of steps=    132.
 GradGradGradGradGradGradGradGradGradGradGradGradGradGradGradGradGradGrad

                          Input orientation:                          
 ---------------------------------------------------------------------
 Center     Atomic      Atomic             Coordinates (Angstroms)
 Number     Number       Type             X           Y           Z
 ---------------------------------------------------------------------
      1          8           0       -0.109192   -0.022665    2.420798
      2          8           0        2.422753   -0.082588    3.882643
      3          8           0        4.374558    1.783778    2.839371
      4          8           0        1.926620    1.516577    0.070047
      5          8           0        4.492272    0.533480   -0.669833
      6          6           0        1.062276    0.776852    0.577076
      7          6           0        1.183314    0.095817    1.892048
      8          6           0        2.198242    0.793447    2.802733
      9          6           0        3.484433    1.058660    2.009901
     10          6           0        3.214443    1.924916    0.768424
     11          6           0        4.276607    1.885711   -0.308055
     12          1           0       -0.088043   -0.652806    3.152703
     13          1           0        2.955589    0.372350    4.547152
     14          1           0        5.110449    0.496637   -1.408370
     15          1           0        0.166343    0.625052   -0.028894
     16          1           0        1.598367   -0.898492    1.622774
     17          1           0        1.772803    1.744750    3.151360
     18          1           0        3.919651    0.101855    1.707780
     19          1           0        3.008251    2.957319    1.057422
     20          1           0        5.177092    2.350987    0.114870
     21          1           0        3.946231    2.489284   -1.161362
     22          1           0        5.256876    1.398509    2.793641
 ---------------------------------------------------------------------
                    Distance matrix (angstroms):
                    1          2          3          4          5
     1  O    0.000000
     2  O    2.924265   0.000000
     3  O    4.852057   2.895045   0.000000
     4  O    3.469845   4.164056   3.705801   0.000000
     5  O    5.570886   5.038600   3.727146   2.845431   0.000000
     6  C    2.326129   3.676453   4.135589   1.245537   3.657716
     7  C    1.401494   2.351702   3.732382   2.427087   4.207611
     8  C    2.477128   1.408562   2.391328   2.839766   4.169997
     9  C    3.775214   2.436549   1.416383   2.529725   2.910761
    10  C    4.191654   3.788826   2.377943   1.520842   2.374347
    11  C    5.506703   4.987276   3.150599   2.408664   1.416306
    12  H    0.966028   2.676202   5.094107   4.274092   6.082627
    13  H    3.751040   0.965637   2.630992   4.734185   5.440982
    14  H    6.494370   5.962719   4.499063   3.655511   0.963813
    15  H    2.548813   4.570805   5.222899   1.975647   4.374112
    16  H    2.078382   2.540141   4.047459   2.889857   3.959960
    17  H    2.683166   2.072770   2.620686   3.093576   4.843987
    18  H    4.093345   2.646649   2.077572   2.942071   2.483393
    19  H    4.523003   4.191147   2.533641   2.054404   3.325767
    20  H    6.236691   5.263533   2.896323   3.356161   2.094771
    21  H    5.965586   5.863232   4.084981   2.557607   2.089242
    22  H    5.563581   3.378140   0.963851   4.303779   3.650828
                    6          7          8          9         10
     6  C    0.000000
     7  C    1.485803   0.000000
     8  C    2.498849   1.531702   0.000000
     9  C    2.828295   2.497219   1.534016   0.000000
    10  C    2.446730   2.955270   2.539941   1.537713   0.000000
    11  C    3.513539   4.196741   3.897389   2.585435   1.512791
    12  H    3.162438   1.940628   2.727861   4.122826   4.820358
    13  H    4.416986   3.204217   1.947792   2.681107   4.093440
    14  H    4.517546   5.145464   5.128589   3.826797   3.220753
    15  H    1.092217   2.237038   3.489281   3.918472   3.408266
    16  H    2.046376   1.110598   2.148211   2.745461   3.363517
    17  H    2.840531   2.156929   1.098871   2.168716   2.790909
    18  H    3.146221   2.742541   2.154175   1.093694   2.168700
    19  H    2.961755   3.495024   2.895612   2.176896   1.091738
    20  H    4.429813   4.918781   4.303961   2.850674   2.112027
    21  H    3.777802   4.762952   4.652459   3.509538   2.139649
    22  H    4.784798   4.370788   3.117920   1.967562   2.924063
                   11         12         13         14         15
    11  C    0.000000
    12  H    6.121363   0.000000
    13  H    5.254368   3.501304   0.000000
    14  H    1.958446   7.010629   6.334596   0.000000
    15  H    4.308302   3.438051   5.365068   5.134552   0.000000
    16  H    4.318896   2.290201   3.465411   4.844475   2.664561
    17  H    4.272758   3.034967   2.287073   5.786951   3.734763
    18  H    2.715354   4.326537   3.010750   3.359202   4.168584
    19  H    2.149790   5.197138   4.343162   4.068700   3.833536
    20  H    1.098280   6.780327   5.338089   2.400691   5.301615
    21  H    1.096167   6.690236   6.168461   2.321004   4.364104
    22  H    3.289196   5.736286   3.069809   4.300198   5.871837
                   16         17         18         19         20
    16  H    0.000000
    17  H    3.058387   0.000000
    18  H    2.529087   3.064635   0.000000
    19  H    4.144234   2.716843   3.067130   0.000000
    20  H    5.063611   4.601845   3.029374   2.441293   0.000000
    21  H    4.974023   4.886480   3.732626   2.453949   1.778458
    22  H    4.475694   3.519462   2.156056   3.240472   2.844185
                   21         22
    21  H    0.000000
    22  H    4.306928   0.000000
 Symmetry turned off by external request.
 Stoichiometry    C6H11O5(1+)
 Framework group  C1[X(C6H11O5)]
 Deg. of freedom    60
 Full point group                 C1      NOp   1
 Rotational constants (GHZ):      1.5749923      0.8900784      0.6519687
 Standard basis: 6-31+G(2df,p) (6D, 7F)
 Integral buffers will be    131072 words long.
 Raffenetti 2 integral format.
 Two-electron integral symmetry is turned off.
   407 basis functions,   605 primitive gaussians,   440 cartesian basis functions
    43 alpha electrons       43 beta electrons
       nuclear repulsion energy       699.8265595713 Hartrees.
 NAtoms=   22 NActive=   22 NUniq=   22 SFac= 1.00D+00 NAtFMM=   50 NAOKFM=F Big=F
 ------------------------------------------------------------------------------
 Polarizable Continuum Model (PCM)
 =================================
 Model                : PCM.
 Atomic radii         : UFF (Universal Force Field).
 Polarization charges : Total charges.
 Charge compensation  : None.
 Solution method      : Matrix inversion.
 Cavity type          : Scaled VdW (van der Waals Surface) (Alpha=1.100).
 Cavity algorithm     : GePol (No added spheres)
                        Default sphere list used, NSphG=   22.
                        Lebedev-Laikov grids with approx.  5.0 points / Ang**2.
                        Smoothing algorithm: Karplus/York (Gamma=1.0000).
                        Polarization charges: spherical gaussians, with
                                              point-specific exponents (IZeta= 3).
                        Self-potential: point-specific (ISelfS= 7).
                        Self-field    : sphere-specific E.n sum rule (ISelfD= 2).
 1st derivatives      : Analytical E(r).r(x)/FMM algorithm (CHGder, D1EAlg=3).
                        Cavity 1st derivative terms included.
 Solvent              : Water, Eps=  78.355300 Eps(inf)=   1.777849
 ------------------------------------------------------------------------------
 One-electron integrals computed using PRISM.
 NBasis=   407 RedAO= T  NBF=   407
 NBsUse=   407 1.00D-06 NBFU=   407
 Initial guess read from the checkpoint file:  gaussian/init2prod/init_water+pos4.chk
 B after Tr=     0.000000    0.000000    0.000000
         Rot=    1.000000    0.000000    0.000000    0.000000 Ang=   0.00 deg.
 Requested convergence on RMS density matrix=1.00D-06 within 128 cycles.
 Requested convergence on MAX density matrix=1.00D-04.
 Requested convergence on             energy=1.00D-04.
 No special actions if energy rises.
 Error on total polarization charges =  0.00976
 SCF Done:  E(RB3LYP) =  -611.222685266     A.U. after    5 cycles
             Convg  =    0.7551D-06             -V/T =  2.0070
 QCSCF skips out because SCF is already converged.

 **********************************************************************

            Population analysis using the SCF density.

 **********************************************************************

 Alpha  occ. eigenvalues --  -19.31133 -19.19914 -19.19030 -19.18539 -19.17801
 Alpha  occ. eigenvalues --  -10.38212 -10.30773 -10.30743 -10.28398 -10.28232
 Alpha  occ. eigenvalues --  -10.26827  -1.20729  -1.09066  -1.07594  -1.05786
 Alpha  occ. eigenvalues --   -1.05487  -0.85940  -0.84455  -0.74706  -0.71123
 Alpha  occ. eigenvalues --   -0.68039  -0.62148  -0.60071  -0.58651  -0.57196
 Alpha  occ. eigenvalues --   -0.56725  -0.54777  -0.52464  -0.52042  -0.48999
 Alpha  occ. eigenvalues --   -0.47652  -0.47339  -0.45954  -0.43574  -0.42383
 Alpha  occ. eigenvalues --   -0.39581  -0.38783  -0.38350  -0.37641  -0.33853
 Alpha  occ. eigenvalues --   -0.32961  -0.31084  -0.30831
 Alpha virt. eigenvalues --   -0.14041  -0.01461  -0.00701   0.00528   0.00907
 Alpha virt. eigenvalues --    0.01513   0.02365   0.03148   0.04042   0.04667
 Alpha virt. eigenvalues --    0.06249   0.06962   0.07835   0.08317   0.09172
 Alpha virt. eigenvalues --    0.09553   0.10399   0.10970   0.11647   0.12041
 Alpha virt. eigenvalues --    0.12638   0.12783   0.13916   0.14539   0.15299
 Alpha virt. eigenvalues --    0.15662   0.15963   0.16646   0.17396   0.17990
 Alpha virt. eigenvalues --    0.18578   0.19670   0.20271   0.20719   0.21167
 Alpha virt. eigenvalues --    0.21205   0.22316   0.22494   0.23108   0.23689
 Alpha virt. eigenvalues --    0.24065   0.24840   0.25175   0.26557   0.26621
 Alpha virt. eigenvalues --    0.27348   0.27893   0.28230   0.28742   0.29954
 Alpha virt. eigenvalues --    0.30050   0.31033   0.31573   0.32938   0.33204
 Alpha virt. eigenvalues --    0.33581   0.34137   0.35315   0.35880   0.36941
 Alpha virt. eigenvalues --    0.37438   0.37803   0.39923   0.40518   0.41685
 Alpha virt. eigenvalues --    0.42868   0.44129   0.52360   0.53979   0.55314
 Alpha virt. eigenvalues --    0.56386   0.58395   0.59200   0.61463   0.63427
 Alpha virt. eigenvalues --    0.64582   0.65362   0.67736   0.68112   0.69545
 Alpha virt. eigenvalues --    0.70563   0.71321   0.72088   0.74398   0.76472
 Alpha virt. eigenvalues --    0.77723   0.80101   0.80897   0.83512   0.84338
 Alpha virt. eigenvalues --    0.86479   0.87269   0.88418   0.88586   0.89378
 Alpha virt. eigenvalues --    0.90683   0.91163   0.92279   0.93615   0.94715
 Alpha virt. eigenvalues --    0.95607   0.96401   0.98628   0.99729   1.01451
 Alpha virt. eigenvalues --    1.02956   1.04087   1.05184   1.06575   1.07421
 Alpha virt. eigenvalues --    1.08648   1.09068   1.10540   1.11292   1.13087
 Alpha virt. eigenvalues --    1.14247   1.15114   1.15746   1.16842   1.17347
 Alpha virt. eigenvalues --    1.19046   1.19983   1.22069   1.23206   1.24742
 Alpha virt. eigenvalues --    1.25173   1.25396   1.27512   1.30016   1.30430
 Alpha virt. eigenvalues --    1.31729   1.33846   1.34762   1.36295   1.38555
 Alpha virt. eigenvalues --    1.39350   1.41284   1.42600   1.43794   1.44723
 Alpha virt. eigenvalues --    1.45962   1.48925   1.51546   1.54125   1.55573
 Alpha virt. eigenvalues --    1.56437   1.57565   1.58997   1.60655   1.62207
 Alpha virt. eigenvalues --    1.62491   1.64860   1.66622   1.68141   1.70816
 Alpha virt. eigenvalues --    1.73887   1.76161   1.78351   1.81296   1.83746
 Alpha virt. eigenvalues --    1.84296   1.86458   1.89983   1.91200   1.93497
 Alpha virt. eigenvalues --    1.95635   1.98650   2.00781   2.05148   2.07143
 Alpha virt. eigenvalues --    2.10258   2.11906   2.19895   2.20568   2.21141
 Alpha virt. eigenvalues --    2.25407   2.26665   2.27398   2.31364   2.38554
 Alpha virt. eigenvalues --    2.43794   2.48433   2.48464   2.51731   2.53234
 Alpha virt. eigenvalues --    2.54302   2.55467   2.57538   2.58189   2.59561
 Alpha virt. eigenvalues --    2.60478   2.63594   2.65796   2.71813   2.72647
 Alpha virt. eigenvalues --    2.76771   2.77566   2.82356   2.82647   2.86103
 Alpha virt. eigenvalues --    2.88210   2.89139   2.92033   2.93863   2.96708
 Alpha virt. eigenvalues --    2.97853   3.00335   3.00763   3.02239   3.02580
 Alpha virt. eigenvalues --    3.03770   3.05638   3.07516   3.08668   3.10817
 Alpha virt. eigenvalues --    3.12155   3.14206   3.18569   3.19181   3.22025
 Alpha virt. eigenvalues --    3.25552   3.27411   3.29758   3.31687   3.33927
 Alpha virt. eigenvalues --    3.37059   3.40168   3.43081   3.44034   3.45348
 Alpha virt. eigenvalues --    3.50548   3.52004   3.53543   3.56172   3.58641
 Alpha virt. eigenvalues --    3.59264   3.62246   3.67526   3.69722   3.70684
 Alpha virt. eigenvalues --    3.77543   3.78453   3.80636   3.85085   3.92966
 Alpha virt. eigenvalues --    3.94635   4.01772   4.05824   4.06823   4.10234
 Alpha virt. eigenvalues --    4.11683   4.13323   4.16205   4.17241   4.21966
 Alpha virt. eigenvalues --    4.22470   4.25398   4.28211   4.28768   4.30119
 Alpha virt. eigenvalues --    4.33358   4.33951   4.35453   4.36259   4.37589
 Alpha virt. eigenvalues --    4.40583   4.41916   4.43441   4.44964   4.45946
 Alpha virt. eigenvalues --    4.46811   4.49297   4.51013   4.53938   4.55643
 Alpha virt. eigenvalues --    4.56522   4.57612   4.58355   4.60535   4.61104
 Alpha virt. eigenvalues --    4.62854   4.63964   4.65093   4.67903   4.68651
 Alpha virt. eigenvalues --    4.71289   4.72505   4.74346   4.75097   4.77250
 Alpha virt. eigenvalues --    4.78377   4.79414   4.80661   4.83700   4.85312
 Alpha virt. eigenvalues --    4.88932   4.89779   4.93903   4.96733   5.01356
 Alpha virt. eigenvalues --    5.03237   5.07595   5.10926   5.15020   5.17825
 Alpha virt. eigenvalues --    5.18893   5.21572   5.22168   5.23723   5.26596
 Alpha virt. eigenvalues --    5.28456   5.31484   5.34698   5.36458   5.38774
 Alpha virt. eigenvalues --    5.40132   5.41277   5.43003   5.43842   5.44411
 Alpha virt. eigenvalues --    5.47792   5.50056   5.52241   5.54036   5.56882
 Alpha virt. eigenvalues --    5.57888   5.68238   5.71790   5.73777   5.78037
 Alpha virt. eigenvalues --    5.83882   5.87018   5.89863   5.91548   5.95364
 Alpha virt. eigenvalues --    5.96319   5.98644   6.01158   6.03298   6.06094
 Alpha virt. eigenvalues --    6.06776   6.08758   6.09024   6.15479   6.33886
 Alpha virt. eigenvalues --    6.37210   6.71333   6.92483   7.12146   7.16793
 Alpha virt. eigenvalues --    7.21010   7.31237   7.41590  11.74063  11.91826
 Alpha virt. eigenvalues --   12.18153  12.58311  12.72055  12.92626  13.38720
 Alpha virt. eigenvalues --   13.41636  13.52950  13.65071  13.81255
          Condensed to atoms (all electrons):
              1          2          3          4          5          6
     1  O    8.021801  -0.000446  -0.000333   0.000224  -0.000053  -0.089734
     2  O   -0.000446   8.069346  -0.004397  -0.000624   0.000340   0.020119
     3  O   -0.000333  -0.004397   8.035678   0.003964  -0.002135   0.005416
     4  O    0.000224  -0.000624   0.003964   7.403777   0.004867   0.277038
     5  O   -0.000053   0.000340  -0.002135   0.004867   8.108532  -0.022131
     6  C   -0.089734   0.020119   0.005416   0.277038  -0.022131   5.328077
     7  C    0.259982  -0.093370  -0.012937   0.003078   0.020657   0.177506
     8  C   -0.035760   0.225056  -0.095990   0.022306  -0.010586  -0.018579
     9  C    0.010985  -0.005469   0.371581  -0.040808   0.005484   0.109052
    10  C   -0.008015  -0.015600  -0.116586   0.239890  -0.051632  -0.134334
    11  C   -0.000374   0.004777  -0.008871  -0.075301   0.191205  -0.020854
    12  H    0.284993   0.006060   0.000000   0.000031   0.000001   0.011677
    13  H   -0.000087   0.280385   0.009384  -0.000055   0.000014  -0.002741
    14  H    0.000000   0.000001   0.000004  -0.000083   0.275498   0.002004
    15  H    0.002762  -0.000144   0.000000  -0.035340   0.000095   0.344597
    16  H   -0.013464   0.001015  -0.000135  -0.001118  -0.000073  -0.004138
    17  H    0.003399  -0.020480   0.002846   0.006097   0.000055  -0.000143
    18  H    0.000494   0.001632  -0.010491   0.008340   0.001842   0.005056
    19  H   -0.000040  -0.000013  -0.001768  -0.018863   0.004084   0.003626
    20  H   -0.000001  -0.000048   0.003955   0.005185  -0.034721  -0.006055
    21  H   -0.000004   0.000008  -0.000383  -0.000992  -0.030644  -0.000102
    22  H    0.000001  -0.000925   0.282355  -0.000557   0.000566   0.000017
              7          8          9         10         11         12
     1  O    0.259982  -0.035760   0.010985  -0.008015  -0.000374   0.284993
     2  O   -0.093370   0.225056  -0.005469  -0.015600   0.004777   0.006060
     3  O   -0.012937  -0.095990   0.371581  -0.116586  -0.008871   0.000000
     4  O    0.003078   0.022306  -0.040808   0.239890  -0.075301   0.000031
     5  O    0.020657  -0.010586   0.005484  -0.051632   0.191205   0.000001
     6  C    0.177506  -0.018579   0.109052  -0.134334  -0.020854   0.011677
     7  C    5.293337   0.340794  -0.311570   0.046695   0.019378  -0.000680
     8  C    0.340794   5.438865   0.038208  -0.108417  -0.054108  -0.031369
     9  C   -0.311570   0.038208   5.699636  -0.058533   0.031423   0.002521
    10  C    0.046695  -0.108417  -0.058533   5.865625   0.045538  -0.000147
    11  C    0.019378  -0.054108   0.031423   0.045538   5.387743   0.000100
    12  H   -0.000680  -0.031369   0.002521  -0.000147   0.000100   0.347746
    13  H    0.020432   0.011411  -0.053946   0.006813  -0.000729  -0.000141
    14  H   -0.000800   0.000147   0.004725   0.020053  -0.041180   0.000000
    15  H   -0.004031   0.002869  -0.013436   0.023026  -0.001051  -0.000262
    16  H    0.284614  -0.000642   0.002942   0.003000   0.003122  -0.005665
    17  H   -0.035631   0.347354  -0.031801   0.002343   0.005837  -0.000159
    18  H    0.001007  -0.025313   0.377792  -0.079654   0.009918  -0.000006
    19  H    0.001412  -0.011077   0.003009   0.315187  -0.001437   0.000000
    20  H    0.004879   0.001653   0.004928  -0.095061   0.443253   0.000000
    21  H   -0.000820  -0.000068   0.002161  -0.075200   0.437734   0.000000
    22  H    0.000231  -0.006278   0.007829  -0.012800   0.001192   0.000000
             13         14         15         16         17         18
     1  O   -0.000087   0.000000   0.002762  -0.013464   0.003399   0.000494
     2  O    0.280385   0.000001  -0.000144   0.001015  -0.020480   0.001632
     3  O    0.009384   0.000004   0.000000  -0.000135   0.002846  -0.010491
     4  O   -0.000055  -0.000083  -0.035340  -0.001118   0.006097   0.008340
     5  O    0.000014   0.275498   0.000095  -0.000073   0.000055   0.001842
     6  C   -0.002741   0.002004   0.344597  -0.004138  -0.000143   0.005056
     7  C    0.020432  -0.000800  -0.004031   0.284614  -0.035631   0.001007
     8  C    0.011411   0.000147   0.002869  -0.000642   0.347354  -0.025313
     9  C   -0.053946   0.004725  -0.013436   0.002942  -0.031801   0.377792
    10  C    0.006813   0.020053   0.023026   0.003000   0.002343  -0.079654
    11  C   -0.000729  -0.041180  -0.001051   0.003122   0.005837   0.009918
    12  H   -0.000141   0.000000  -0.000262  -0.005665  -0.000159  -0.000006
    13  H    0.357651   0.000000   0.000003  -0.000070  -0.005009  -0.000032
    14  H    0.000000   0.360836   0.000000   0.000003   0.000000  -0.000091
    15  H    0.000003   0.000000   0.414825   0.000675  -0.000106  -0.000019
    16  H   -0.000070   0.000003   0.000675   0.493193   0.003859   0.001446
    17  H   -0.005009   0.000000  -0.000106   0.003859   0.532549   0.004007
    18  H   -0.000032  -0.000091  -0.000019   0.001446   0.004007   0.512657
    19  H    0.000006  -0.000138  -0.000128  -0.000082   0.000980   0.003818
    20  H    0.000001  -0.002449   0.000002  -0.000002  -0.000006  -0.000029
    21  H    0.000000  -0.003475  -0.000011   0.000001   0.000001   0.000032
    22  H   -0.000492  -0.000018   0.000000   0.000011  -0.000092  -0.009156
             19         20         21         22
     1  O   -0.000040  -0.000001  -0.000004   0.000001
     2  O   -0.000013  -0.000048   0.000008  -0.000925
     3  O   -0.001768   0.003955  -0.000383   0.282355
     4  O   -0.018863   0.005185  -0.000992  -0.000557
     5  O    0.004084  -0.034721  -0.030644   0.000566
     6  C    0.003626  -0.006055  -0.000102   0.000017
     7  C    0.001412   0.004879  -0.000820   0.000231
     8  C   -0.011077   0.001653  -0.000068  -0.006278
     9  C    0.003009   0.004928   0.002161   0.007829
    10  C    0.315187  -0.095061  -0.075200  -0.012800
    11  C   -0.001437   0.443253   0.437734   0.001192
    12  H    0.000000   0.000000   0.000000   0.000000
    13  H    0.000006   0.000001   0.000000  -0.000492
    14  H   -0.000138  -0.002449  -0.003475  -0.000018
    15  H   -0.000128   0.000002  -0.000011   0.000000
    16  H   -0.000082  -0.000002   0.000001   0.000011
    17  H    0.000980  -0.000006   0.000001  -0.000092
    18  H    0.003818  -0.000029   0.000032  -0.009156
    19  H    0.485074   0.000413  -0.000956  -0.000029
    20  H    0.000413   0.519479  -0.035885  -0.000566
    21  H   -0.000956  -0.035885   0.520971   0.000034
    22  H   -0.000029  -0.000566   0.000034   0.356521
 Mulliken atomic charges:
              1
     1  O   -0.436329
     2  O   -0.467221
     3  O   -0.461155
     4  O    0.198944
     5  O   -0.461265
     6  C    0.014626
     7  C   -0.014161
     8  C   -0.030476
     9  C   -0.156709
    10  C    0.187810
    11  C   -0.377314
    12  H    0.385302
    13  H    0.377201
    14  H    0.384963
    15  H    0.265674
    16  H    0.231506
    17  H    0.184102
    18  H    0.196751
    19  H    0.216923
    20  H    0.191075
    21  H    0.187598
    22  H    0.382156
 Sum of Mulliken atomic charges =   1.00000
 Mulliken charges with hydrogens summed into heavy atoms:
              1
     1  O   -0.051027
     2  O   -0.090020
     3  O   -0.078999
     4  O    0.198944
     5  O   -0.076302
     6  C    0.280300
     7  C    0.217345
     8  C    0.153625
     9  C    0.040042
    10  C    0.404733
    11  C    0.001359
 Sum of Mulliken charges with hydrogens summed into heavy atoms =   1.00000
 Electronic spatial extent (au):  <R**2>=           4860.9741
 Charge=              1.0000 electrons
 Dipole moment (field-independent basis, Debye):
    X=             13.4274    Y=              5.2471    Z=              4.1040  Tot=             14.9890
 Quadrupole moment (field-independent basis, Debye-Ang):
   XX=             -7.0574   YY=            -52.4600   ZZ=            -45.2639
   XY=             19.6569   XZ=              9.3056   YZ=              0.5551
 Traceless Quadrupole moment (field-independent basis, Debye-Ang):
   XX=             27.8697   YY=            -17.5329   ZZ=            -10.3368
   XY=             19.6569   XZ=              9.3056   YZ=              0.5551
 Octapole moment (field-independent basis, Debye-Ang**2):
  XXX=           -209.6949  YYY=           -157.5850  ZZZ=           -223.5300  XYY=           -138.3781
  XXY=             20.6326  XXZ=            -66.2059  XZZ=           -106.9405  YZZ=            -52.6087
  YYZ=            -95.0503  XYZ=              5.3032
 Hexadecapole moment (field-independent basis, Debye-Ang**3):
 XXXX=          -1969.8929 YYYY=           -582.5906 ZZZZ=          -1389.5858 XXXY=           -220.0474
 XXXZ=           -482.1246 YYYX=           -541.7926 YYYZ=           -188.5307 ZZZX=           -467.0625
 ZZZY=           -150.5971 XXYY=           -596.2967 XXZZ=           -588.7381 YYZZ=           -400.4069
 XXYZ=            -59.1745 YYXZ=           -243.2232 ZZXY=           -153.6207
 N-N= 6.998265595713D+02 E-N=-2.816038287602D+03  KE= 6.069865929826D+02
 D1PCM: PCM CHGder 1st derivatives, ID1Alg=3 FixD1E=F DoIter=F DoCFld=F I1PDM=0.
 Calling FoFJK, ICntrl=      2127 FMM=F ISym2X=0 I1Cent= 0 IOpClX= 0 NMat=1 NMatS=1 NMatT=0.
 -------------------------------------------------------------------
 Center     Atomic                   Forces (Hartrees/Bohr)
 Number     Number              X              Y              Z
 -------------------------------------------------------------------
      1        8          -0.000706629   -0.000023875    0.000682775
      2        8           0.000111958   -0.000439297    0.000828557
      3        8           0.000190503    0.000206371    0.000389051
      4        8           0.000270594   -0.000301274    0.000310593
      5        8           0.000171819   -0.000476271   -0.000336582
      6        6           0.000052732    0.000121544   -0.000556783
      7        6           0.000843144   -0.000073094   -0.000406056
      8        6          -0.000463248    0.000436298   -0.000675740
      9        6          -0.000281980   -0.000032831   -0.000171078
     10        6          -0.000393140    0.000129326   -0.000148660
     11        6          -0.000128111    0.000211662    0.000399002
     12        1           0.000142901   -0.000112402   -0.000293025
     13        1           0.000093690    0.000134702   -0.000098428
     14        1           0.000098880    0.000325710    0.000047612
     15        1           0.000238095    0.000016522    0.000042325
     16        1          -0.000443616    0.000223673    0.000085441
     17        1           0.000051903    0.000020970    0.000099361
     18        1           0.000252443    0.000147365    0.000143620
     19        1          -0.000039578   -0.000111117   -0.000132134
     20        1          -0.000023513   -0.000123326   -0.000203141
     21        1          -0.000003096   -0.000122946    0.000092840
     22        1          -0.000035749   -0.000157709   -0.000099550
 -------------------------------------------------------------------
 Cartesian Forces:  Max     0.000843144 RMS     0.000305658

 GradGradGradGradGradGradGradGradGradGradGradGradGradGradGradGradGradGrad
 Berny optimization.
 Internal  Forces:  Max     0.001023145 RMS     0.000213860
 Search for a local minimum.
 Step number   1 out of a maximum of  127
 All quantities printed in internal units (Hartrees-Bohrs-Radians)
 Mixed Optimization -- En-DIIS/RFO-DIIS
 Second derivative matrix not updated -- first step.
 ITU=  0
     Eigenvalues ---    0.00447   0.00597   0.00654   0.01286   0.01476
     Eigenvalues ---    0.01507   0.01507   0.01579   0.01628   0.01672
     Eigenvalues ---    0.03312   0.03808   0.03960   0.04722   0.04937
     Eigenvalues ---    0.04999   0.05478   0.05490   0.05871   0.06330
     Eigenvalues ---    0.06778   0.08107   0.08274   0.08708   0.10908
     Eigenvalues ---    0.11455   0.13631   0.13703   0.15998   0.16000
     Eigenvalues ---    0.16000   0.16000   0.16531   0.17673   0.18969
     Eigenvalues ---    0.19934   0.21921   0.22018   0.27657   0.28349
     Eigenvalues ---    0.28508   0.29965   0.31072   0.32537   0.33054
     Eigenvalues ---    0.33807   0.33873   0.34110   0.34389   0.34558
     Eigenvalues ---    0.34613   0.43010   0.43022   0.44231   0.45374
     Eigenvalues ---    0.54197   0.54278   0.54653   0.54661   0.81242
 RFO step:  Lambda=-5.26762459D-05 EMin= 4.46811404D-03
 Linear search not attempted -- first point.
 Iteration  1 RMS(Cart)=  0.01148663 RMS(Int)=  0.00007209
 Iteration  2 RMS(Cart)=  0.00008881 RMS(Int)=  0.00000454
 Iteration  3 RMS(Cart)=  0.00000001 RMS(Int)=  0.00000454
 Variable       Old X    -DE/DX   Delta X   Delta X   Delta X     New X
                                 (Linear)    (Quad)   (Total)
    R1        2.64844   0.00068   0.00000   0.00150   0.00150   2.64995
    R2        1.82553  -0.00014   0.00000  -0.00026  -0.00026   1.82527
    R3        2.66180   0.00081   0.00000   0.00184   0.00184   2.66364
    R4        1.82479   0.00004   0.00000   0.00007   0.00007   1.82486
    R5        2.67658   0.00021   0.00000   0.00049   0.00049   2.67707
    R6        1.82141   0.00007   0.00000   0.00012   0.00012   1.82154
    R7        2.35372  -0.00032   0.00000  -0.00034  -0.00033   2.35339
    R8        2.87397  -0.00038   0.00000  -0.00156  -0.00156   2.87241
    R9        2.67643   0.00024   0.00000   0.00056   0.00056   2.67699
   R10        1.82134   0.00002   0.00000   0.00003   0.00003   1.82137
   R11        2.80776   0.00021   0.00000   0.00100   0.00100   2.80876
   R12        2.06399  -0.00022   0.00000  -0.00065  -0.00065   2.06334
   R13        2.89450   0.00015   0.00000   0.00079   0.00079   2.89529
   R14        2.09873  -0.00040   0.00000  -0.00122  -0.00122   2.09751
   R15        2.89887   0.00010   0.00000   0.00029   0.00029   2.89916
   R16        2.07657   0.00002   0.00000   0.00005   0.00005   2.07662
   R17        2.90586   0.00013   0.00000  -0.00001  -0.00001   2.90585
   R18        2.06678  -0.00005   0.00000  -0.00015  -0.00015   2.06663
   R19        2.85876   0.00007   0.00000   0.00022   0.00022   2.85898
   R20        2.06309  -0.00013   0.00000  -0.00037  -0.00037   2.06272
   R21        2.07545  -0.00016   0.00000  -0.00046  -0.00046   2.07498
   R22        2.07145  -0.00013   0.00000  -0.00037  -0.00037   2.07108
    A1        1.89737  -0.00036   0.00000  -0.00226  -0.00226   1.89510
    A2        1.89920  -0.00026   0.00000  -0.00164  -0.00164   1.89756
    A3        2.16537   0.00023   0.00000   0.00009   0.00007   2.16544
    A4        1.90699  -0.00062   0.00000  -0.00389  -0.00389   1.90310
    A5        2.18458  -0.00004   0.00000   0.00003   0.00002   2.18459
    A6        2.01079  -0.00005   0.00000  -0.00046  -0.00045   2.01034
    A7        2.08764   0.00009   0.00000   0.00042   0.00042   2.08806
    A8        1.87289   0.00031   0.00000   0.00226   0.00226   1.87515
    A9        2.01007  -0.00017   0.00000  -0.00072  -0.00072   2.00935
   A10        1.93954  -0.00017   0.00000  -0.00275  -0.00275   1.93679
   A11        1.95132  -0.00009   0.00000   0.00131   0.00130   1.95262
   A12        1.79900  -0.00012   0.00000  -0.00152  -0.00152   1.79748
   A13        1.87999   0.00023   0.00000   0.00126   0.00126   1.88125
   A14        1.85269   0.00023   0.00000   0.00224   0.00225   1.85494
   A15        1.94994  -0.00017   0.00000  -0.00077  -0.00077   1.94917
   A16        1.93573  -0.00007   0.00000  -0.00152  -0.00153   1.93420
   A17        1.90395   0.00000   0.00000   0.00094   0.00093   1.90487
   A18        1.90327   0.00002   0.00000   0.00057   0.00057   1.90385
   A19        1.91656   0.00001   0.00000  -0.00126  -0.00126   1.91530
   A20        1.88889   0.00000   0.00000   0.00007   0.00008   1.88897
   A21        1.86999   0.00010   0.00000   0.00078   0.00079   1.87077
   A22        1.93860  -0.00018   0.00000  -0.00267  -0.00268   1.93592
   A23        1.94706  -0.00007   0.00000  -0.00151  -0.00153   1.94553
   A24        1.90198   0.00012   0.00000   0.00218   0.00219   1.90417
   A25        1.91737   0.00002   0.00000   0.00103   0.00103   1.91840
   A26        1.94783  -0.00001   0.00000  -0.00086  -0.00088   1.94695
   A27        1.83467  -0.00011   0.00000   0.00062   0.00063   1.83530
   A28        1.78803   0.00000   0.00000  -0.00092  -0.00092   1.78712
   A29        2.02264   0.00031   0.00000   0.00310   0.00310   2.02574
   A30        1.93068  -0.00004   0.00000  -0.00069  -0.00069   1.92999
   A31        1.92355  -0.00019   0.00000  -0.00170  -0.00171   1.92184
   A32        1.88959   0.00102   0.00000   0.00496   0.00496   1.89455
   A33        1.95842  -0.00037   0.00000  -0.00117  -0.00118   1.95724
   A34        1.95278  -0.00035   0.00000  -0.00216  -0.00216   1.95062
   A35        1.86573  -0.00003   0.00000   0.00116   0.00116   1.86689
   A36        1.90503  -0.00034   0.00000  -0.00188  -0.00188   1.90315
   A37        1.88979   0.00007   0.00000  -0.00081  -0.00081   1.88898
   A38        2.68029  -0.00026   0.00000  -0.01742  -0.01742   2.66287
   A39        4.70241   0.00027   0.00000   0.01789   0.01789   4.72029
    D1        2.89033  -0.00016   0.00000  -0.00960  -0.00959   2.88074
    D2       -1.20790  -0.00014   0.00000  -0.00659  -0.00660  -1.21450
    D3        0.93572  -0.00010   0.00000  -0.00767  -0.00767   0.92805
    D4       -2.99643  -0.00009   0.00000  -0.00391  -0.00391  -3.00034
    D5        1.21316  -0.00014   0.00000  -0.00599  -0.00598   1.20717
    D6       -0.93136   0.00003   0.00000  -0.00271  -0.00272  -0.93407
    D7       -0.08131  -0.00002   0.00000  -0.00468  -0.00468  -0.08599
    D8        3.08081  -0.00009   0.00000  -0.00403  -0.00403   3.07678
    D9        0.24282   0.00005   0.00000   0.01270   0.01270   0.25552
   D10        2.44892   0.00036   0.00000   0.01645   0.01645   2.46538
   D11       -1.82327   0.00011   0.00000   0.01444   0.01444  -1.80884
   D12        3.05623  -0.00010   0.00000   0.00030   0.00030   3.05653
   D13       -1.17209   0.00030   0.00000   0.00419   0.00419  -1.16790
   D14        0.95621  -0.00013   0.00000   0.00070   0.00070   0.95691
   D15        2.60914  -0.00009   0.00000  -0.00421  -0.00421   2.60493
   D16        0.38930  -0.00004   0.00000  -0.00587  -0.00587   0.38343
   D17       -1.62529  -0.00020   0.00000  -0.00708  -0.00708  -1.63237
   D18       -0.55382  -0.00002   0.00000  -0.00490  -0.00490  -0.55872
   D19       -2.77366   0.00003   0.00000  -0.00656  -0.00656  -2.78022
   D20        1.49494  -0.00013   0.00000  -0.00777  -0.00777   1.48717
   D21        1.20231  -0.00009   0.00000   0.00270   0.00270   1.20502
   D22       -2.97724  -0.00016   0.00000   0.00357   0.00357  -2.97366
   D23       -0.88411  -0.00014   0.00000   0.00294   0.00294  -0.88117
   D24       -2.93723   0.00013   0.00000   0.00627   0.00626  -2.93097
   D25       -0.83360   0.00006   0.00000   0.00714   0.00714  -0.82646
   D26        1.25953   0.00008   0.00000   0.00651   0.00650   1.26603
   D27       -0.97277   0.00007   0.00000   0.00584   0.00583  -0.96694
   D28        1.13086   0.00000   0.00000   0.00671   0.00671   1.13757
   D29       -3.05920   0.00002   0.00000   0.00608   0.00607  -3.05313
   D30       -1.16722   0.00022   0.00000   0.00347   0.00346  -1.16376
   D31        3.06294   0.00013   0.00000   0.00334   0.00334   3.06628
   D32        0.94287   0.00008   0.00000   0.00156   0.00156   0.94443
   D33        3.07308   0.00003   0.00000   0.00059   0.00058   3.07366
   D34        1.02006  -0.00005   0.00000   0.00046   0.00046   1.02052
   D35       -1.10001  -0.00011   0.00000  -0.00132  -0.00132  -1.10133
   D36        0.98817   0.00000   0.00000   0.00007   0.00007   0.98825
   D37       -1.06485  -0.00008   0.00000  -0.00005  -0.00005  -1.06490
   D38        3.09827  -0.00013   0.00000  -0.00183  -0.00183   3.09644
   D39       -2.77689  -0.00003   0.00000  -0.00949  -0.00949  -2.78638
   D40        1.40727  -0.00011   0.00000  -0.01193  -0.01193   1.39534
   D41       -0.79820  -0.00006   0.00000  -0.01152  -0.01152  -0.80972
   D42       -0.71251   0.00000   0.00000  -0.00977  -0.00977  -0.72228
   D43       -2.81153  -0.00008   0.00000  -0.01222  -0.01222  -2.82375
   D44        1.26618  -0.00004   0.00000  -0.01181  -0.01181   1.25437
   D45        1.39861   0.00011   0.00000  -0.00732  -0.00732   1.39129
   D46       -0.70041   0.00004   0.00000  -0.00976  -0.00976  -0.71018
   D47       -2.90589   0.00008   0.00000  -0.00935  -0.00936  -2.91524
   D48       -1.20671  -0.00002   0.00000   0.00409   0.00410  -1.20261
   D49        2.96319  -0.00013   0.00000   0.00208   0.00208   2.96526
   D50        0.92287  -0.00002   0.00000   0.00337   0.00338   0.92624
   D51        0.95249   0.00009   0.00000   0.00547   0.00547   0.95796
   D52       -1.16080  -0.00002   0.00000   0.00345   0.00345  -1.15736
   D53        3.08206   0.00009   0.00000   0.00475   0.00475   3.08681
   D54       -3.12163   0.00012   0.00000   0.00556   0.00556  -3.11607
   D55        1.04826   0.00000   0.00000   0.00354   0.00354   1.05180
   D56       -0.99206   0.00011   0.00000   0.00484   0.00484  -0.98722
         Item               Value     Threshold  Converged?
 Maximum Force            0.001023     0.000450     NO 
 RMS     Force            0.000214     0.000300     YES
 Maximum Displacement     0.046811     0.001800     NO 
 RMS     Displacement     0.011482     0.001200     NO 
 Predicted change in Energy=-2.641034D-05
 GradGradGradGradGradGradGradGradGradGradGradGradGradGradGradGradGradGrad

                          Input orientation:                          
 ---------------------------------------------------------------------
 Center     Atomic      Atomic             Coordinates (Angstroms)
 Number     Number       Type             X           Y           Z
 ---------------------------------------------------------------------
      1          8           0       -0.115181   -0.011019    2.427187
      2          8           0        2.421806   -0.077124    3.889078
      3          8           0        4.377228    1.777837    2.837257
      4          8           0        1.930940    1.501883    0.065736
      5          8           0        4.506943    0.542704   -0.679968
      6          6           0        1.063503    0.767990    0.575517
      7          6           0        1.178461    0.097272    1.896919
      8          6           0        2.197262    0.794462    2.804315
      9          6           0        3.483872    1.053754    2.009910
     10          6           0        3.213528    1.918184    0.767243
     11          6           0        4.278775    1.890061   -0.306696
     12          1           0       -0.096317   -0.641955    3.158290
     13          1           0        2.960216    0.379962    4.547649
     14          1           0        5.128014    0.521408   -1.416704
     15          1           0        0.170283    0.612670   -0.032941
     16          1           0        1.585337   -0.901670    1.635077
     17          1           0        1.776209    1.748616    3.150550
     18          1           0        3.918516    0.096046    1.710133
     19          1           0        2.998760    2.948696    1.056011
     20          1           0        5.175607    2.359045    0.119246
     21          1           0        3.945656    2.496367   -1.156738
     22          1           0        5.250517    1.374245    2.777157
 ---------------------------------------------------------------------
                    Distance matrix (angstroms):
                    1          2          3          4          5
     1  O    0.000000
     2  O    2.928788   0.000000
     3  O    4.852824   2.893248   0.000000
     4  O    3.471589   4.165592   3.706994   0.000000
     5  O    5.596878   5.060451   3.730047   2.848138   0.000000
     6  C    2.329127   3.679524   4.137153   1.245360   3.672094
     7  C    1.402291   2.354787   3.733718   2.427424   4.232912
     8  C    2.477583   1.409536   2.391728   2.840983   4.187867
     9  C    3.776380   2.436830   1.416645   2.528287   2.922891
    10  C    4.190172   3.788658   2.378835   1.520016   2.378925
    11  C    5.513172   4.992261   3.147495   2.408676   1.416603
    12  H    0.965892   2.682169   5.096181   4.274307   6.109471
    13  H    3.755968   0.965675   2.624389   4.733462   5.454065
    14  H    6.523041   5.986077   4.498719   3.657902   0.963827
    15  H    2.553959   4.574648   5.224369   1.974930   4.385220
    16  H    2.076646   2.541668   4.052117   2.891252   3.997678
    17  H    2.682709   2.072570   2.619982   3.098532   4.856336
    18  H    4.098333   2.649138   2.075873   2.937836   2.501666
    19  H    4.509619   4.185060   2.538488   2.052840   3.328218
    20  H    6.239890   5.265925   2.891849   3.356405   2.094027
    21  H    5.968408   5.865597   4.080997   2.557836   2.087858
    22  H    5.552670   3.368151   0.963915   4.288087   3.632640
                    6          7          8          9         10
     6  C    0.000000
     7  C    1.486332   0.000000
     8  C    2.500730   1.532122   0.000000
     9  C    2.827956   2.498509   1.534169   0.000000
    10  C    2.445876   2.955230   2.538741   1.537708   0.000000
    11  C    3.517857   4.204992   3.900182   2.588039   1.512907
    12  H    3.162885   1.939735   2.729303   4.124556   4.819386
    13  H    4.418815   3.206390   1.947595   2.677374   4.089226
    14  H    4.533210   5.172906   5.145956   3.837744   3.222710
    15  H    1.091873   2.237502   3.491663   3.917610   3.406758
    16  H    2.045176   1.109952   2.149054   2.751112   3.369824
    17  H    2.846116   2.157739   1.098898   2.167950   2.788332
    18  H    3.144831   2.746415   2.155860   1.093612   2.169386
    19  H    2.954923   3.485862   2.887851   2.176249   1.091544
    20  H    4.432724   4.924725   4.304422   2.853132   2.112821
    21  H    3.780846   4.768422   4.652236   3.510276   2.138226
    22  H    4.769261   4.357421   3.107933   1.952541   2.912894
                   11         12         13         14         15
    11  C    0.000000
    12  H    6.128512   0.000000
    13  H    5.252015   3.509563   0.000000
    14  H    1.956154   7.041137   6.347666   0.000000
    15  H    4.311192   3.439348   5.368397   5.148031   0.000000
    16  H    4.338070   2.283767   3.466403   4.887645   2.660430
    17  H    4.270292   3.036651   2.286257   5.796589   3.742191
    18  H    2.723211   4.331361   3.008396   3.379486   4.165868
    19  H    2.148515   5.185735   4.334907   4.066912   3.826632
    20  H    1.098035   6.784907   5.332493   2.395478   5.303419
    21  H    1.095968   6.693734   6.163627   2.316466   4.366311
    22  H    3.274217   5.727037   3.060836   4.281449   5.855375
                   16         17         18         19         20
    16  H    0.000000
    17  H    3.058940   0.000000
    18  H    2.538660   3.065171   0.000000
    19  H    4.142269   2.705903   3.067807   0.000000
    20  H    5.081343   4.595360   3.038480   2.442106   0.000000
    21  H    4.991191   4.880406   3.739148   2.448974   1.777575
    22  H    4.462922   3.514312   2.132266   3.242167   2.835477
                   21         22
    21  H    0.000000
    22  H    4.293873   0.000000
 Symmetry turned off by external request.
 Stoichiometry    C6H11O5(1+)
 Framework group  C1[X(C6H11O5)]
 Deg. of freedom    60
 Full point group                 C1      NOp   1
 Rotational constants (GHZ):      1.5784655      0.8869298      0.6494830
 Standard basis: 6-31+G(2df,p) (6D, 7F)
 Integral buffers will be    131072 words long.
 Raffenetti 2 integral format.
 Two-electron integral symmetry is turned off.
   407 basis functions,   605 primitive gaussians,   440 cartesian basis functions
    43 alpha electrons       43 beta electrons
       nuclear repulsion energy       699.4714318751 Hartrees.
 NAtoms=   22 NActive=   22 NUniq=   22 SFac= 1.00D+00 NAtFMM=   50 NAOKFM=F Big=F
 ------------------------------------------------------------------------------
 Polarizable Continuum Model (PCM)
 =================================
 Model                : PCM.
 Atomic radii         : UFF (Universal Force Field).
 Polarization charges : Total charges.
 Charge compensation  : None.
 Solution method      : Matrix inversion.
 Cavity type          : Scaled VdW (van der Waals Surface) (Alpha=1.100).
 Cavity algorithm     : GePol (No added spheres)
                        Default sphere list used, NSphG=   22.
                        Lebedev-Laikov grids with approx.  5.0 points / Ang**2.
                        Smoothing algorithm: Karplus/York (Gamma=1.0000).
                        Polarization charges: spherical gaussians, with
                                              point-specific exponents (IZeta= 3).
                        Self-potential: point-specific (ISelfS= 7).
                        Self-field    : sphere-specific E.n sum rule (ISelfD= 2).
 1st derivatives      : Analytical E(r).r(x)/FMM algorithm (CHGder, D1EAlg=3).
                        Cavity 1st derivative terms included.
 Solvent              : Water, Eps=  78.355300 Eps(inf)=   1.777849
 ------------------------------------------------------------------------------
 One-electron integrals computed using PRISM.
 NBasis=   407 RedAO= T  NBF=   407
 NBsUse=   407 1.00D-06 NBFU=   407
 Initial guess read from the read-write file.
 B after Tr=     0.000000    0.000000    0.000000
         Rot=    1.000000    0.000000    0.000000    0.000000 Ang=   0.00 deg.
 Harris functional with IExCor=  402 diagonalized for initial guess.
 ExpMin= 4.38D-02 ExpMax= 5.48D+03 ExpMxC= 8.25D+02 IAcc=2 IRadAn=         0 AccDes= 0.00D+00
 HarFok:  IExCor=  402 AccDes= 0.00D+00 IRadAn=         0 IDoV= 1
 ScaDFX=  1.000000  1.000000  1.000000  1.000000
 FoFCou: FMM=F IPFlag=           0 FMFlag=      100000 FMFlg1=           0
         NFxFlg=           0 DoJE=T BraDBF=F KetDBF=T FulRan=T
         Omega=  0.000000  0.000000  1.000000  0.000000  0.000000 ICntrl=     500 IOpCl=  0
         NMat0=    1 NMatS0=    1 NMatT0=    0 NMatD0=    1 NMtDS0=    0 NMtDT0=    0
         I1Cent=           4 NGrid=           0.
 Symmetry not used in FoFCou.
 Requested convergence on RMS density matrix=1.00D-06 within 128 cycles.
 Requested convergence on MAX density matrix=1.00D-04.
 Requested convergence on             energy=1.00D-04.
 No special actions if energy rises.
 Error on total polarization charges =  0.00975
 SCF Done:  E(RB3LYP) =  -611.222671373     A.U. after    5 cycles
             Convg  =    0.6055D-06             -V/T =  2.0070
 QCSCF skips out because SCF is already converged.
 D1PCM: PCM CHGder 1st derivatives, ID1Alg=3 FixD1E=F DoIter=F DoCFld=F I1PDM=0.
 Calling FoFJK, ICntrl=      2127 FMM=F ISym2X=0 I1Cent= 0 IOpClX= 0 NMat=1 NMatS=1 NMatT=0.
 -------------------------------------------------------------------
 Center     Atomic                   Forces (Hartrees/Bohr)
 Number     Number              X              Y              Z
 -------------------------------------------------------------------
      1        8          -0.000270714    0.000194664    0.000326901
      2        8          -0.000131402   -0.000228937    0.000208345
      3        8           0.001069101   -0.001548530   -0.000839543
      4        8           0.000282426   -0.000211063    0.000002169
      5        8          -0.000078515   -0.000246466    0.000138479
      6        6          -0.000156541   -0.000022416    0.000094624
      7        6           0.000583506    0.000077764    0.000053278
      8        6          -0.000268169    0.000146570   -0.000548349
      9        6          -0.001749525    0.000445522   -0.000422808
     10        6          -0.000174957   -0.000176063   -0.000098521
     11        6          -0.000114077    0.000303453    0.000092274
     12        1          -0.000046387   -0.000194567   -0.000164599
     13        1           0.000072883    0.000085729   -0.000068679
     14        1           0.000095727    0.000035923    0.000044930
     15        1           0.000045879   -0.000108194   -0.000043596
     16        1          -0.000007978    0.000023056   -0.000094570
     17        1          -0.000059909   -0.000043000   -0.000035544
     18        1          -0.000030884    0.000001517    0.000058004
     19        1           0.000107819    0.000116511   -0.000063432
     20        1          -0.000027636   -0.000011974    0.000001478
     21        1          -0.000064974    0.000043037    0.000012432
     22        1           0.000924328    0.001317463    0.001346727
 -------------------------------------------------------------------
 Cartesian Forces:  Max     0.001749525 RMS     0.000456619

 GradGradGradGradGradGradGradGradGradGradGradGradGradGradGradGradGradGrad
 Berny optimization.
 Using GEDIIS/GDIIS optimizer.
 Internal  Forces:  Max     0.002886717 RMS     0.000414918
 Search for a local minimum.
 Step number   2 out of a maximum of  127
 All quantities printed in internal units (Hartrees-Bohrs-Radians)
 Mixed Optimization -- En-DIIS/RFO-DIIS
 Swaping is turned off.
 Update second derivatives using D2CorX and points    1    2
 DE=  1.39D-05 DEPred=-2.64D-05 R=-5.26D-01
 Trust test=-5.26D-01 RLast= 5.83D-02 DXMaxT set to 1.50D-01
 ITU= -1  0
     Eigenvalues ---    0.00275   0.00586   0.00638   0.01241   0.01406
     Eigenvalues ---    0.01485   0.01519   0.01605   0.01628   0.03235
     Eigenvalues ---    0.03552   0.03938   0.04674   0.04777   0.04949
     Eigenvalues ---    0.05246   0.05419   0.05680   0.06271   0.06727
     Eigenvalues ---    0.07874   0.08263   0.08287   0.09986   0.10739
     Eigenvalues ---    0.11525   0.12925   0.13761   0.15863   0.15998
     Eigenvalues ---    0.16000   0.16070   0.17085   0.17784   0.19113
     Eigenvalues ---    0.20238   0.21791   0.22712   0.27690   0.28260
     Eigenvalues ---    0.28778   0.29818   0.31252   0.32366   0.33262
     Eigenvalues ---    0.33810   0.33840   0.34102   0.34384   0.34506
     Eigenvalues ---    0.34617   0.42516   0.43233   0.45067   0.47397
     Eigenvalues ---    0.54187   0.54277   0.54661   0.54710   0.81099
 En-DIIS/RFO-DIIS IScMMF=        0 using points:     2    1
 RFO step:  Lambda=-4.84150317D-05.
 DidBck=T Rises=F RFO-DIIS coefs:    0.39299    0.60701
 Iteration  1 RMS(Cart)=  0.02386952 RMS(Int)=  0.00022875
 Iteration  2 RMS(Cart)=  0.00034113 RMS(Int)=  0.00002333
 Iteration  3 RMS(Cart)=  0.00000003 RMS(Int)=  0.00002333
 Variable       Old X    -DE/DX   Delta X   Delta X   Delta X     New X
                                  (DIIS)     (GDIIS)  (Total)
    R1        2.64995   0.00036  -0.00091   0.00469   0.00378   2.65372
    R2        1.82527   0.00000   0.00016  -0.00075  -0.00059   1.82468
    R3        2.66364   0.00021  -0.00112   0.00554   0.00442   2.66806
    R4        1.82486   0.00003  -0.00004   0.00023   0.00019   1.82505
    R5        2.67707   0.00195  -0.00030   0.00322   0.00292   2.67999
    R6        1.82154   0.00023  -0.00007   0.00052   0.00045   1.82198
    R7        2.35339  -0.00010   0.00020  -0.00098  -0.00077   2.35262
    R8        2.87241  -0.00012   0.00095  -0.00467  -0.00373   2.86868
    R9        2.67699   0.00015  -0.00034   0.00177   0.00143   2.67842
   R10        1.82137   0.00003  -0.00002   0.00010   0.00008   1.82145
   R11        2.80876  -0.00028  -0.00061   0.00266   0.00208   2.81084
   R12        2.06334   0.00000   0.00039  -0.00189  -0.00150   2.06185
   R13        2.89529  -0.00027  -0.00048   0.00190   0.00143   2.89672
   R14        2.09751  -0.00002   0.00074  -0.00357  -0.00283   2.09468
   R15        2.89916   0.00008  -0.00018   0.00091   0.00073   2.89989
   R16        2.07662  -0.00003  -0.00003   0.00011   0.00008   2.07669
   R17        2.90585  -0.00042   0.00001  -0.00072  -0.00074   2.90511
   R18        2.06663  -0.00001   0.00009  -0.00047  -0.00037   2.06626
   R19        2.85898  -0.00035  -0.00013   0.00019   0.00006   2.85904
   R20        2.06272   0.00007   0.00022  -0.00098  -0.00076   2.06196
   R21        2.07498  -0.00004   0.00028  -0.00139  -0.00111   2.07388
   R22        2.07108   0.00004   0.00023  -0.00104  -0.00082   2.07027
    A1        1.89510   0.00000   0.00137  -0.00658  -0.00521   1.88989
    A2        1.89756  -0.00017   0.00100  -0.00518  -0.00419   1.89337
    A3        2.16544   0.00006  -0.00004   0.00023   0.00006   2.16551
    A4        1.90310  -0.00008   0.00236  -0.01151  -0.00914   1.89395
    A5        2.18459  -0.00018  -0.00001  -0.00025  -0.00032   2.18427
    A6        2.01034   0.00010   0.00027  -0.00114  -0.00084   2.00950
    A7        2.08806   0.00007  -0.00026   0.00133   0.00110   2.08916
    A8        1.87515   0.00003  -0.00137   0.00669   0.00533   1.88048
    A9        2.00935  -0.00005   0.00044  -0.00209  -0.00165   2.00769
   A10        1.93679   0.00002   0.00167  -0.00788  -0.00621   1.93057
   A11        1.95262   0.00008  -0.00079   0.00373   0.00289   1.95551
   A12        1.79748  -0.00015   0.00092  -0.00502  -0.00408   1.79340
   A13        1.88125   0.00005  -0.00077   0.00400   0.00324   1.88450
   A14        1.85494  -0.00018  -0.00136   0.00629   0.00496   1.85990
   A15        1.94917  -0.00004   0.00047  -0.00239  -0.00192   1.94725
   A16        1.93420   0.00004   0.00093  -0.00447  -0.00357   1.93064
   A17        1.90487   0.00019  -0.00056   0.00306   0.00245   1.90732
   A18        1.90385   0.00004  -0.00035   0.00165   0.00131   1.90515
   A19        1.91530  -0.00004   0.00076  -0.00360  -0.00283   1.91247
   A20        1.88897  -0.00031  -0.00005   0.00012   0.00010   1.88907
   A21        1.87077   0.00086  -0.00048   0.00565   0.00521   1.87598
   A22        1.93592  -0.00024   0.00162  -0.00876  -0.00715   1.92877
   A23        1.94553  -0.00024   0.00093  -0.00490  -0.00405   1.94148
   A24        1.90417  -0.00001  -0.00133   0.00533   0.00403   1.90821
   A25        1.91840  -0.00006  -0.00063   0.00227   0.00165   1.92006
   A26        1.94695   0.00018   0.00053  -0.00255  -0.00211   1.94485
   A27        1.83530  -0.00006  -0.00038   0.00154   0.00120   1.83649
   A28        1.78712  -0.00004   0.00056  -0.00218  -0.00161   1.78551
   A29        2.02574  -0.00013  -0.00188   0.00882   0.00696   2.03270
   A30        1.92999   0.00009   0.00042  -0.00158  -0.00115   1.92884
   A31        1.92184  -0.00003   0.00104  -0.00535  -0.00433   1.91751
   A32        1.89455  -0.00025  -0.00301   0.01393   0.01091   1.90547
   A33        1.95724   0.00004   0.00072  -0.00351  -0.00283   1.95441
   A34        1.95062   0.00016   0.00131  -0.00581  -0.00450   1.94612
   A35        1.86689   0.00005  -0.00070   0.00334   0.00262   1.86952
   A36        1.90315   0.00000   0.00114  -0.00550  -0.00435   1.89880
   A37        1.88898   0.00000   0.00049  -0.00223  -0.00174   1.88723
   A38        2.66287   0.00289   0.01058   0.02463   0.03520   2.69807
   A39        4.72029  -0.00217  -0.01086  -0.00471  -0.01556   4.70473
    D1        2.88074  -0.00022   0.00582  -0.03138  -0.02554   2.85520
    D2       -1.21450  -0.00012   0.00401  -0.02263  -0.01865  -1.23315
    D3        0.92805  -0.00007   0.00466  -0.02519  -0.02052   0.90753
    D4       -3.00034  -0.00001   0.00237  -0.01259  -0.01023  -3.01058
    D5        1.20717  -0.00010   0.00363  -0.01884  -0.01519   1.19199
    D6       -0.93407  -0.00005   0.00165  -0.00931  -0.00767  -0.94175
    D7       -0.08599  -0.00010   0.00284  -0.01506  -0.01220  -0.09819
    D8        3.07678  -0.00005   0.00244  -0.01138  -0.00893   3.06785
    D9        0.25552   0.00018  -0.00771   0.03865   0.03094   0.28646
   D10        2.46538   0.00009  -0.00999   0.04911   0.03912   2.50450
   D11       -1.80884   0.00002  -0.00876   0.04292   0.03416  -1.77467
   D12        3.05653   0.00004  -0.00018   0.00186   0.00168   3.05821
   D13       -1.16790  -0.00004  -0.00254   0.01278   0.01023  -1.15767
   D14        0.95691   0.00010  -0.00043   0.00314   0.00272   0.95963
   D15        2.60493   0.00000   0.00256  -0.01181  -0.00925   2.59568
   D16        0.38343  -0.00002   0.00356  -0.01671  -0.01316   0.37026
   D17       -1.63237  -0.00003   0.00430  -0.02026  -0.01597  -1.64834
   D18       -0.55872  -0.00005   0.00297  -0.01566  -0.01268  -0.57139
   D19       -2.78022  -0.00006   0.00398  -0.02056  -0.01659  -2.79681
   D20        1.48717  -0.00008   0.00472  -0.02412  -0.01939   1.46777
   D21        1.20502   0.00000  -0.00164   0.00801   0.00637   1.21139
   D22       -2.97366  -0.00005  -0.00217   0.01045   0.00829  -2.96537
   D23       -0.88117   0.00004  -0.00179   0.00889   0.00710  -0.87407
   D24       -2.93097   0.00007  -0.00380   0.01849   0.01468  -2.91629
   D25       -0.82646   0.00002  -0.00433   0.02093   0.01660  -0.80986
   D26        1.26603   0.00010  -0.00395   0.01937   0.01541   1.28144
   D27       -0.96694  -0.00003  -0.00354   0.01669   0.01314  -0.95380
   D28        1.13757  -0.00008  -0.00407   0.01913   0.01506   1.15263
   D29       -3.05313   0.00000  -0.00369   0.01757   0.01387  -3.03925
   D30       -1.16376   0.00044  -0.00210   0.01366   0.01155  -1.15221
   D31        3.06628  -0.00028  -0.00203   0.00953   0.00747   3.07375
   D32        0.94443  -0.00005  -0.00095   0.00626   0.00531   0.94974
   D33        3.07366   0.00057  -0.00035   0.00544   0.00506   3.07872
   D34        1.02052  -0.00015  -0.00028   0.00131   0.00099   1.02151
   D35       -1.10133   0.00008   0.00080  -0.00196  -0.00117  -1.10250
   D36        0.98825   0.00043  -0.00004   0.00373   0.00369   0.99193
   D37       -1.06490  -0.00028   0.00003  -0.00040  -0.00039  -1.06528
   D38        3.09644  -0.00005   0.00111  -0.00367  -0.00255   3.09389
   D39       -2.78638   0.00006   0.00576  -0.02995  -0.02418  -2.81056
   D40        1.39534   0.00009   0.00724  -0.03654  -0.02930   1.36605
   D41       -0.80972   0.00017   0.00699  -0.03502  -0.02803  -0.83775
   D42       -0.72228   0.00007   0.00593  -0.02910  -0.02316  -0.74544
   D43       -2.82375   0.00010   0.00742  -0.03570  -0.02828  -2.85202
   D44        1.25437   0.00018   0.00717  -0.03417  -0.02701   1.22736
   D45        1.39129  -0.00014   0.00444  -0.02407  -0.01963   1.37166
   D46       -0.71018  -0.00011   0.00593  -0.03067  -0.02475  -0.73493
   D47       -2.91524  -0.00003   0.00568  -0.02914  -0.02348  -2.93872
   D48       -1.20261  -0.00011  -0.00249   0.01084   0.00839  -1.19422
   D49        2.96526  -0.00005  -0.00126   0.00531   0.00406   2.96932
   D50        0.92624  -0.00008  -0.00205   0.00896   0.00694   0.93318
   D51        0.95796  -0.00001  -0.00332   0.01450   0.01117   0.96913
   D52       -1.15736   0.00005  -0.00209   0.00896   0.00684  -1.15052
   D53        3.08681   0.00003  -0.00288   0.01262   0.00972   3.09653
   D54       -3.11607  -0.00003  -0.00337   0.01482   0.01145  -3.10462
   D55        1.05180   0.00004  -0.00215   0.00928   0.00712   1.05892
   D56       -0.98722   0.00001  -0.00294   0.01294   0.01000  -0.97722
         Item               Value     Threshold  Converged?
 Maximum Force            0.002887     0.000450     NO 
 RMS     Force            0.000415     0.000300     NO 
 Maximum Displacement     0.102432     0.001800     NO 
 RMS     Displacement     0.023859     0.001200     NO 
 Predicted change in Energy=-8.511428D-05
 GradGradGradGradGradGradGradGradGradGradGradGradGradGradGradGradGradGrad

                          Input orientation:                          
 ---------------------------------------------------------------------
 Center     Atomic      Atomic             Coordinates (Angstroms)
 Number     Number       Type             X           Y           Z
 ---------------------------------------------------------------------
      1          8           0       -0.130345    0.018875    2.441911
      2          8           0        2.420226   -0.068471    3.899609
      3          8           0        4.388107    1.753875    2.830043
      4          8           0        1.938857    1.468132    0.054768
      5          8           0        4.535833    0.561715   -0.706947
      6          6           0        1.063319    0.749456    0.571336
      7          6           0        1.165175    0.101529    1.906351
      8          6           0        2.195545    0.794605    2.805070
      9          6           0        3.482490    1.038677    2.005659
     10          6           0        3.210579    1.900522    0.762023
     11          6           0        4.280649    1.897474   -0.307521
     12          1           0       -0.117749   -0.616901    3.168527
     13          1           0        2.974305    0.391268    4.543315
     14          1           0        5.162298    0.575613   -1.439337
     15          1           0        0.175677    0.587140   -0.042020
     16          1           0        1.550604   -0.908048    1.659618
     17          1           0        1.786961    1.755565    3.147528
     18          1           0        3.911745    0.077940    1.708539
     19          1           0        2.978347    2.926683    1.051249
     20          1           0        5.169987    2.374169    0.124027
     21          1           0        3.939994    2.510251   -1.149340
     22          1           0        5.267332    1.359364    2.799819
 ---------------------------------------------------------------------
                    Distance matrix (angstroms):
                    1          2          3          4          5
     1  O    0.000000
     2  O    2.939035   0.000000
     3  O    4.855644   2.887468   0.000000
     4  O    3.475687   4.168414   3.712496   0.000000
     5  O    5.655369   5.108159   3.735421   2.854134   0.000000
     6  C    2.336158   3.686137   4.143046   1.244952   3.705079
     7  C    1.404289   2.361595   3.737746   2.427870   4.289806
     8  C    2.478590   1.411877   2.393355   2.843183   4.226754
     9  C    3.779271   2.437463   1.418188   2.524522   2.948772
    10  C    4.186215   3.787616   2.384279   1.518041   2.388844
    11  C    5.526788   5.002605   3.142686   2.408231   1.417360
    12  H    0.965578   2.697512   5.102733   4.274633   6.169624
    13  H    3.767416   0.965774   2.605922   4.730628   5.480207
    14  H    6.586814   6.036402   4.496141   3.663265   0.963871
    15  H    2.566415   4.583041   5.230161   1.973403   4.410639
    16  H    2.072862   2.545327   4.062899   2.893531   4.083189
    17  H    2.681427   2.072139   2.620450   3.109801   4.882474
    18  H    4.108506   2.654591   2.072064   2.925727   2.541278
    19  H    4.478086   4.170803   2.554801   2.049606   3.333180
    20  H    6.246080   5.270929   2.884203   3.356471   2.092285
    21  H    5.972579   5.869530   4.075341   2.557427   2.085072
    22  H    5.573144   3.369609   0.964152   4.315771   3.669978
                    6          7          8          9         10
     6  C    0.000000
     7  C    1.487431   0.000000
     8  C    2.504704   1.532877   0.000000
     9  C    2.827247   2.501611   1.534554   0.000000
    10  C    2.443776   2.954580   2.535229   1.537317   0.000000
    11  C    3.527258   4.222893   3.905407   2.593336   1.512939
    12  H    3.163425   1.937814   2.734187   4.129761   4.817307
    13  H    4.422305   3.210993   1.946957   2.667787   4.078215
    14  H    4.568879   5.234060   5.183104   3.860594   3.226543
    15  H    1.091082   2.238543   3.496974   3.915596   3.403247
    16  H    2.041844   1.108457   2.151055   2.764357   3.383676
    17  H    2.858790   2.159392   1.098938   2.166244   2.781787
    18  H    3.139697   2.753786   2.159012   1.093416   2.170100
    19  H    2.939042   3.464143   2.869568   2.174770   1.091141
    20  H    4.438976   4.937620   4.304686   2.858623   2.114394
    21  H    3.786342   4.778997   4.650150   3.511248   2.134742
    22  H    4.797067   4.382708   3.123276   1.979694   2.945454
                   11         12         13         14         15
    11  C    0.000000
    12  H    6.144176   0.000000
    13  H    5.244597   3.530898   0.000000
    14  H    1.950802   7.108685   6.372866   0.000000
    15  H    4.317206   3.441428   5.375498   5.178709   0.000000
[...]
 00014298,0.00562938,0.28993216,0.02559804,0.24507793,-0.22527097,0.000
 17934,0.00029651,-0.00019992,-0.00043728,-0.00013552,-0.00006705,-0.00
 047683,0.00104322,-0.00011210,-0.00002378,0.00001079,0.00003157,0.0039
 7723,0.00053424,-0.00216264,0.00038957,0.00907199,-0.01284775,-0.00118
 409,-0.00040614,0.00212090,-0.00001344,0.00010646,-0.00053629,-0.00005
 940,-0.00004044,-0.00023737,0.00005599,0.00000298,-0.00001446,-0.02580
 924,-0.25620057,0.23722113,0.00052507,0.00005308,-0.00023448,-0.184952
 51,-0.13524202,-0.20229782,0.00036144,0.00078799,-0.00178130,-0.000142
 32,0.00010507,-0.00019296,-0.00001701,0.00000273,-0.00001154,-0.000125
 56,-0.00044540,-0.00031219,-0.00090100,0.00087074,-0.00093984,-0.00491
 318,-0.00270713,-0.00360629,0.00193161,-0.00038905,0.00290698,-0.00029
 255,-0.00016565,-0.00009292,0.00015767,0.00001356,0.00007864,0.0002804
 9,0.00009505,0.00009720,0.18810851,0.00004465,0.00020313,-0.00037298,-
 0.16001431,-0.14667872,-0.15831672,0.00048905,0.00000022,-0.00127593,-
 0.00052233,-0.00031833,-0.00010856,-0.00001222,0.00000039,0.00000217,0
 .00107011,0.00146130,0.00024569,-0.00005168,-0.00256181,0.00445032,0.0
 1951417,0.00866327,0.02406254,0.00037161,0.00050202,0.00184494,0.00004
 712,0.00001848,0.00010674,0.00008142,-0.00004996,0.00001974,0.00032558
 ,-0.00012045,0.00009682,0.13819572,0.13889246,0.00049640,0.00000613,0.
 00064184,-0.18271784,-0.11634007,-0.21948450,-0.00055329,-0.00112167,0
 .00213343,0.00025472,0.00009782,0.00032982,-0.00011608,0.00014908,0.00
 018189,-0.00135402,-0.00061341,-0.00059388,0.00027424,0.00405719,-0.00
 369556,-0.02078372,-0.01412789,-0.02660095,-0.00060201,-0.00116819,-0.
 00182819,-0.00117381,-0.00002102,-0.00000720,0.00035945,-0.00035974,0.
 00012512,-0.00050543,-0.00022091,-0.00006197,0.20523643,0.12912320,0.2
 4709064,0.00005221,0.00002147,-0.00001360,0.00005082,0.00006848,-0.000
 12780,-0.00001666,-0.00006277,-0.00006487,0.00055548,0.00013804,0.0000
 9308,-0.23172049,0.01445126,0.25856037,0.00020725,0.00001036,0.0000204
 6,-0.00007491,-0.00001397,-0.00001347,-0.00012415,-0.00007875,0.000071
 77,0.00052440,0.00009647,-0.00038027,-0.00034428,0.00143124,-0.0005279
 2,-0.00456150,-0.00254822,0.00268104,-0.00000524,-0.00000893,0.0000029
 4,-0.00000048,0.00000127,0.00002950,0.23380191,-0.00005073,-0.00001751
 ,0.00001418,-0.00000117,-0.00001481,0.00006135,0.00001081,0.00025509,0
 .00017657,-0.00049255,0.00006854,0.00020451,-0.02125951,-0.03939670,0.
 02012626,0.00022713,0.00004473,0.00002659,0.00005616,0.00002311,-0.000
 01955,0.00006046,0.00018156,-0.00006869,-0.00026510,-0.00052084,0.0006
 4267,0.00077621,-0.00783371,-0.00142175,0.03071243,-0.00824710,-0.0344
 9608,0.00000252,0.00000885,-0.00000417,0.00000615,-0.00000076,-0.00002
 233,-0.01089060,0.05303639,-0.00003280,-0.00001242,0.00002684,-0.00003
 389,-0.00001558,0.00007329,-0.00000201,-0.00013154,-0.00002472,-0.0005
 2376,-0.00018696,0.00035093,0.25554422,-0.02005205,-0.28714119,0.00020
 087,0.00031483,-0.00023338,0.00006093,-0.00005380,-0.00002569,0.000087
 05,-0.00021606,-0.00002213,-0.00012461,-0.00001990,0.00014705,-0.00038
 445,-0.00155843,-0.00016686,0.00523406,0.00319154,-0.00793331,0.000000
 68,0.00001123,0.00000025,0.00000289,-0.00000322,-0.00000653,-0.2601595
 4,0.01632883,0.29277150,0.00159150,0.00084778,-0.00069953,0.00015108,0
 .00006899,0.00003848,-0.00023790,0.00023236,-0.00005626,-0.02854375,-0
 .01315043,-0.00827370,-0.00003260,0.00018971,0.00007846,-0.23001988,-0
 .02648905,-0.12974623,0.00247752,-0.00625417,-0.00177711,0.00066056,0.
 00032951,0.00057363,-0.00002845,-0.00047140,-0.00023734,0.00670698,-0.
 00202626,0.00079227,-0.00005152,-0.00028878,0.00017942,0.00005952,0.00
 001319,-0.00014303,0.00000383,0.00011573,0.00012451,-0.00000391,0.0000
 1157,-0.00001526,0.24818062,-0.00053341,-0.00086101,-0.00033981,0.0012
 5957,0.00043143,0.00159219,0.00009050,-0.00000279,-0.00064113,-0.02882
 545,-0.00885004,-0.01019717,0.00019000,0.00007376,0.00000662,-0.021894
 63,-0.05934879,-0.02010492,0.00925061,0.01620966,0.01427534,-0.0033899
 3,-0.00263717,0.00092303,-0.00094987,-0.00064850,0.00098594,-0.0018074
 9,0.00835839,0.00567996,-0.00175907,-0.00109867,-0.00170932,-0.0000973
 4,0.00000371,-0.00001037,0.00012607,-0.00043282,0.00008177,0.00001740,
 -0.00001243,-0.00002463,0.04732556,0.04740502,-0.00056045,-0.00137011,
 0.00244039,-0.00136870,-0.00070814,-0.00152776,0.00014464,-0.00029677,
 0.00020997,0.02206709,0.00507429,0.01576795,0.00013564,-0.00018244,-0.
 00014400,-0.13989753,-0.02171186,-0.15959692,-0.01909691,-0.00254827,-
 0.00363764,0.00095320,0.00359541,-0.00106736,0.00053036,0.00080335,-0.
 00012563,-0.00250094,0.00420353,0.00067710,-0.00001586,0.00014495,0.00
 007547,0.00020243,0.00002248,0.00044418,0.00006550,0.00019649,-0.00028
 805,-0.00000990,-0.00002000,0.00001910,0.13839916,0.01183038,0.1475155
 3,-0.02980316,0.02657162,0.01587459,0.00113242,0.00093758,0.00193896,0
 .00012613,0.00037242,0.00002936,-0.00186606,-0.00183695,0.00117769,-0.
 00003069,0.00005068,0.00000571,-0.00093938,0.00806285,-0.00380954,-0.0
 6107618,0.06608639,0.01796030,0.00452364,-0.02005903,-0.00682710,0.000
 83295,-0.00060492,0.00011779,0.00057802,-0.00018867,0.00038629,-0.0000
 4597,-0.00008522,-0.00024470,0.00186739,0.00028137,-0.00218776,0.00008
 664,-0.00016636,0.00016853,0.00000667,0.00002378,-0.00000387,0.0002915
 0,-0.00067628,-0.00045892,0.08846286,-0.00060125,0.00673718,-0.0003546
 0,0.00069583,0.00181911,0.00173947,0.00001710,0.00037286,0.00015533,0.
 00187680,0.00323231,0.00097397,0.00002129,-0.00005724,-0.00005698,0.00
 379327,-0.02433161,0.00217530,0.07212800,-0.24077453,-0.04364960,0.002
 13798,-0.01697073,-0.00524423,0.00096468,-0.00017924,-0.00050278,-0.00
 038967,-0.00072865,-0.00035871,0.00004610,0.00004621,0.00020358,0.0000
 0184,0.00211570,0.00063294,0.00014970,0.00009461,0.00031661,0.00000688
 ,0.00002461,0.00000319,-0.00026753,0.00090274,0.00111699,-0.07782080,0
 .26763819,0.01693757,-0.01378943,-0.00437413,0.00175565,0.00052569,0.0
 0267796,-0.00010357,0.00013035,0.00009450,0.00609288,-0.00143025,-0.00
 651247,0.00017459,-0.00012903,-0.00010898,-0.00979549,0.02437359,0.011
 38514,0.00598424,-0.02580119,-0.05508705,0.00340078,-0.02342384,-0.004
 40641,0.00129232,0.00086188,-0.00012974,-0.00258046,0.00123389,-0.0003
 3484,-0.00007796,0.00003358,0.00048305,-0.00008257,-0.00111490,0.00165
 416,0.00016363,0.00003480,0.00024720,-0.00002561,-0.00001767,0.0000237
 3,0.00121801,-0.00356470,-0.00135425,-0.02231139,0.04345295,0.05743195
 ,0.00259277,0.00125710,0.00085590,0.00083943,0.00773815,-0.00350382,0.
 00347836,-0.00021273,-0.00081183,0.00087034,0.00038174,-0.00002966,0.0
 0003604,-0.00014828,0.00012343,0.00017352,-0.00178931,0.00152724,0.006
 32403,-0.01968894,-0.01064966,-0.08702832,0.07892604,0.03292448,-0.012
 52652,0.02447425,0.01399009,0.00071377,0.00057567,-0.00208923,-0.00007
 649,-0.00007093,0.00017638,-0.00002384,-0.00008148,0.00001827,0.000411
 49,0.00071904,0.00006411,0.00003948,-0.00010259,0.00004815,-0.00002787
 ,0.00028550,0.00006971,-0.00244931,-0.00207247,-0.00292186,0.08956842,
 0.00062834,0.00134583,0.00119544,0.01152427,-0.02447797,0.00919281,0.0
 0110061,0.00063988,0.00031290,0.00083471,0.00039938,-0.00043320,0.0000
 0194,-0.00001798,0.00007189,-0.00104389,-0.00229219,0.00032455,0.00389
 047,-0.01128862,-0.00844988,0.07874190,-0.23023314,-0.07440999,-0.0029
 8964,0.00515969,0.00117350,0.00009906,0.00070845,-0.00049576,-0.000090
 72,0.00012636,-0.00023893,0.00006900,0.00000392,0.00003790,-0.00135333
 ,0.00037058,-0.00011893,-0.00000236,-0.00001344,0.00004595,-0.00004662
 ,0.00027120,-0.00005491,-0.00086128,-0.00005998,-0.00156433,-0.0881654
 0,0.25864860,0.00066166,0.00184701,0.00128390,-0.01374601,0.03656668,-
 0.00095747,-0.00115960,0.00109751,0.00098611,0.00030973,0.00057774,-0.
 00069004,0.00000382,0.00006357,-0.00011750,-0.00021391,-0.00285693,0.0
 0072740,0.00677760,-0.01637472,-0.00797975,0.03194693,-0.07807661,-0.0
 7978416,0.00672273,-0.01554407,-0.00563816,-0.00025694,-0.00081452,0.0
 0116911,0.00016940,-0.00001467,0.00016224,-0.00002448,0.00007260,0.000
 00756,0.00080544,0.00049887,0.00200893,-0.00003672,0.00007693,-0.00005
 079,0.00001475,0.00012191,-0.00000450,-0.00227891,-0.00119538,-0.00213
 740,-0.03226703,0.07221076,0.09266125,0.00008848,-0.00046092,-0.000278
 58,0.00268410,-0.00092032,-0.00210185,0.00187462,-0.02938036,-0.015430
 90,0.00025245,-0.00022814,0.00025912,-0.00017875,-0.00029942,0.0006996
 1,-0.00129538,0.00008774,-0.00096474,0.00087377,0.00118682,0.00092335,
 -0.01390247,0.02588425,0.00808100,-0.09805449,0.09976715,0.03089942,-0
 .00031841,0.00502376,0.00174221,0.00002116,-0.00022885,0.00035281,-0.0
 0000818,-0.00000552,0.00002807,-0.00009406,-0.00002827,0.00014208,-0.0
 0009904,-0.00013751,0.00002107,-0.00004037,0.00009751,0.00000880,-0.00
 140068,-0.00060058,0.00032947,-0.00391356,-0.00171885,0.00242416,0.109
 68036,-0.00003790,0.00001916,-0.00001481,-0.00023219,0.00102740,-0.000
 99651,-0.00216979,-0.01551635,-0.01031520,0.00085137,0.00026066,0.0008
 0293,0.00028173,0.00093050,-0.00129352,-0.00039717,-0.00029420,0.00039
 972,0.00025301,0.00022543,-0.00002712,-0.00165388,0.00540136,0.0021669
 4,0.09169118,-0.24804053,-0.05898101,0.00761606,-0.01613234,-0.0014542
 1,0.00115485,-0.00105266,-0.00105347,0.00001573,-0.00001574,-0.0000266
 4,0.00002252,-0.00002869,0.00003867,-0.00016496,0.00044099,-0.00024309
 ,0.00003224,0.00005283,-0.00009269,-0.00021871,0.00004077,0.00025030,-
 0.00133176,0.00029948,0.00113718,-0.09620473,0.27168809,-0.00000291,0.
 00027073,0.00007078,-0.00126065,-0.00063987,0.00189936,-0.00003770,-0.
 02368565,-0.01020922,0.00067298,-0.00041576,0.00023253,0.00050996,-0.0
 0013558,-0.00130683,-0.00099413,0.00025534,-0.00040041,-0.00044594,-0.
 00066741,-0.00002240,0.01012729,-0.01373548,-0.00469689,0.02584898,-0.
 05821402,-0.06796409,-0.01155293,0.02630880,0.00696688,-0.00025509,0.0
 0032403,0.00107596,0.00002216,0.00002943,-0.00000434,0.00001756,-0.000
 21643,-0.00026637,0.00007989,-0.00042739,0.00020237,-0.00002641,-0.000
 06563,0.00005707,0.00043421,0.00062043,0.00010008,0.00218343,0.0005641
 1,-0.00095127,-0.02620733,0.06776768,0.07814489,-0.00018657,0.00007822
 ,0.00031562,0.00004308,0.00017354,-0.00016087,0.00011699,0.00045965,0.
 00007435,-0.01016768,-0.03589559,-0.01270193,-0.00424174,0.00005138,0.
 00543936,0.00041429,0.00085954,-0.00498421,0.00081241,-0.00185612,-0.0
 0067138,-0.00004270,-0.00037794,-0.00035745,0.00080092,0.00353419,0.00
 151492,-0.05768903,0.06272761,0.02240020,-0.00014316,0.02226850,0.0029
 8937,0.00002482,0.00009661,0.00000212,0.00000572,-0.00002344,0.0000501
 5,-0.00002768,0.00136469,0.00026591,-0.00113703,0.00146308,0.00127149,
 -0.00021682,-0.00001524,0.00058698,0.00045360,-0.00061058,0.00045789,0
 .00015689,0.00039689,-0.00093276,0.06963300,-0.00002014,-0.00000307,-0
 .00004325,-0.00010227,0.00038473,0.00007677,-0.00114276,0.00234705,-0.
 00094396,-0.00612054,-0.00778030,-0.00363547,-0.00077337,0.00129877,0.
 00082055,0.00089086,0.00053809,-0.00113853,-0.00014680,-0.00023285,-0.
 00004069,0.00077026,-0.00000480,-0.00053794,0.00515731,-0.01729514,-0.
 00398196,0.05562798,-0.29244015,-0.06694253,0.00090248,0.00064189,0.00
 077339,-0.00002166,-0.00002031,-0.00001881,0.00001781,-0.00004115,0.00
 002609,-0.00016431,0.00024597,0.00020946,-0.00027671,0.00004626,0.0001
 3400,0.00004923,0.00009527,0.00001920,-0.00077729,0.00029130,0.0006190
 8,-0.00004100,-0.00049565,0.00261753,-0.05410556,0.31148202,-0.0000099
 5,0.00005790,0.00001736,0.00035259,-0.00046318,-0.00020890,0.00195120,
 -0.00065470,0.00236826,-0.00540359,-0.01546033,-0.00407877,0.00435833,
 0.00002484,-0.00359215,0.00104161,0.00103700,-0.00238856,0.00048761,-0
 .00073880,-0.00035088,-0.00079626,0.00052964,0.00092413,-0.00643676,0.
 02586872,0.00634930,0.01693719,-0.06411507,-0.06707442,0.00357376,-0.0
 2108955,-0.00490320,0.00003381,0.00005561,0.00000342,-0.00001294,0.000
 01720,-0.00003681,0.00035507,-0.00116642,0.00009826,-0.00046624,0.0006
 1449,0.00057013,-0.00001444,-0.00000023,0.00033138,0.00044434,0.000559
 06,-0.00073208,-0.00079564,0.00200048,-0.00411812,-0.01480738,0.072630
 86,0.07524011,-0.00011103,-0.00003898,0.00014663,0.00014353,0.00003904
 ,0.00007425,0.00098325,0.00064382,-0.00054892,-0.00487041,-0.00121239,
 0.00411108,0.01327047,0.00412873,0.00328561,-0.00009967,0.00092889,-0.
 00148752,0.00027925,-0.00019781,-0.00003619,-0.00034193,-0.00007951,-0
 .00021827,-0.00027631,-0.00028751,-0.00075993,-0.01841039,-0.00796295,
 -0.01039248,-0.22980643,-0.08338710,-0.07778162,-0.00000116,0.00004708
 ,0.00000036,-0.00001741,-0.00003254,0.00003560,0.00115952,-0.00048148,
 0.00017200,-0.00000371,-0.00040425,0.00009487,-0.00005712,0.00004764,0
 .00012887,0.00005285,0.00000424,-0.00000196,0.00001030,-0.00014700,0.0
 0018319,0.00031873,0.00037047,-0.00013042,0.24399053,0.00009671,0.0000
 4794,-0.00006280,0.00002937,0.00004430,-0.00010590,0.00034648,0.000348
 72,-0.00054005,0.00308727,0.00181505,-0.00037909,-0.02257916,-0.031647
 21,-0.01857468,0.00029296,-0.00010166,0.00033503,-0.00011403,0.0000668
 0,0.00000845,0.00003470,0.00004319,0.00007306,-0.00046764,-0.00028638,
 -0.00030253,-0.00567411,-0.00103477,0.00253378,-0.07836482,-0.08284509
 ,-0.03657068,-0.00000366,-0.00002632,0.00000075,-0.00002244,-0.0000113
 8,0.00004176,-0.00082875,0.00084970,0.00139562,0.00007625,0.00010576,-
 0.00008851,0.00001380,-0.00000258,-0.00005184,-0.00000656,-0.00001297,
 0.00000720,0.00000931,-0.00003225,-0.00006108,0.00018277,0.00029248,0.
 00066211,0.09156428,0.10479517,0.00004057,0.00001921,-0.00010304,-0.00
 015965,-0.00012023,0.00011286,-0.00038708,0.00013692,-0.00090532,0.007
 44450,0.00166005,-0.00372492,-0.00380272,-0.01247202,-0.00166576,0.000
 73693,-0.00055851,0.00186583,-0.00022736,0.00005849,-0.00006349,0.0005
 0552,0.00002964,0.00023271,-0.00082812,-0.00007693,0.00060508,0.015248
 68,0.00787977,0.00893581,-0.07960726,-0.03381879,-0.08772451,0.0000038
 7,-0.00003369,-0.00000436,-0.00001373,0.00000583,-0.00004484,-0.000559
 55,-0.00036478,0.00030055,0.00008284,0.00056279,-0.00009358,0.00004969
 ,-0.00003975,-0.00007907,-0.00005002,0.00000828,-0.00000882,-0.0000330
 3,0.00011087,-0.00012175,-0.00060861,-0.00031802,0.00105478,0.08539628
 ,0.04582490,0.09005990,-0.00009946,-0.00004350,-0.00004833,-0.00046130
 ,-0.00044535,0.00081159,0.00073081,0.00052757,-0.00043754,0.00276476,0
 .00009699,-0.00036316,0.00053974,0.00903768,-0.00046615,0.00000889,-0.
 00032076,0.00052127,0.00008708,0.00024856,0.00001001,0.00127520,-0.000
 52007,0.00039988,-0.00541694,0.00008107,0.00162332,0.00367279,-0.01357
 810,0.02342299,-0.07473180,0.04032541,-0.06642895,0.00002219,0.0000065
 0,-0.00000656,-0.00003732,-0.00002597,-0.00010989,0.00053874,0.0004832
 7,-0.00036361,0.00000246,0.00015547,-0.00002027,0.00002523,-0.00002082
 ,-0.00005658,-0.00004155,0.00003792,-0.00001647,-0.00000380,-0.0000596
 8,-0.00009332,0.00093619,0.00000344,-0.00075248,-0.00645393,0.01232990
 ,-0.02342544,0.07664157,0.00007993,0.00003549,-0.00003877,0.00011559,0
 .00012023,-0.00028314,0.00025204,0.00023090,-0.00003194,0.00113871,0.0
 0005977,0.00017296,0.01434126,-0.03632945,0.01845649,-0.00014539,-0.00
 016341,0.00003179,-0.00011316,0.00007349,-0.00000525,-0.00021642,0.000
 08550,-0.00004325,0.00087335,0.00077902,-0.00033234,-0.00266521,0.0007
 4492,0.00145624,0.03986599,-0.11369954,0.10230975,-0.00000515,-0.00001
 947,0.00000272,0.00000146,0.00000263,0.00004006,-0.00148401,0.00088635
 ,0.00097584,0.00002100,0.00002176,-0.00002083,0.00001789,-0.00000053,-
 0.00003843,0.00001964,-0.00001072,0.00000227,0.00010539,0.00005195,-0.
 00030347,-0.00079537,0.00048032,-0.00024125,-0.00324199,0.00763948,-0.
 00861787,-0.04823423,0.13911888,0.00023086,0.00008743,0.00000661,0.000
 51859,0.00052571,-0.00096320,-0.00028557,-0.00007500,0.00006661,-0.001
 42701,-0.00039873,0.00149388,0.00416519,-0.01010440,0.01366700,-0.0001
 4074,-0.00002801,0.00018293,-0.00031505,-0.00029222,-0.00003997,-0.001
 52706,0.00036969,-0.00014907,0.00504550,-0.00103016,-0.00059050,-0.007
 27576,0.01185477,-0.02155389,-0.06161849,0.10722732,-0.21480344,-0.000
 03010,-0.00003139,0.00002025,0.00002224,0.00002224,0.00017514,-0.00004
 101,0.00043960,0.00162021,0.00003659,-0.00003813,-0.00002587,-0.000012
 75,-0.00000546,0.00002767,0.00008037,-0.00003643,0.00000248,-0.0000884
 2,-0.00003979,0.00020078,-0.00011648,-0.00010586,0.00033169,-0.0028751
 8,0.00541909,-0.00786604,0.06551179,-0.11366201,0.22805154,-0.00003911
 ,-0.00003158,-0.00015241,0.00078873,0.00051215,-0.00055622,-0.42538993
 ,0.17028581,0.00912124,0.00128188,0.00032624,0.00063492,-0.00023671,0.
 00020053,0.00028729,-0.00037760,-0.00037863,0.00032541,-0.00032078,-0.
 00004472,0.00074215,-0.00297699,-0.00224248,-0.00268614,-0.02165152,0.
 01096996,0.00360677,-0.00130530,-0.00019105,-0.00091846,0.00012166,-0.
 00018526,-0.00034951,-0.00003983,-0.00002882,-0.00000770,-0.00037908,-
 0.00009833,0.00068037,0.00004187,-0.00005395,0.00000595,0.00000143,0.0
 0007645,-0.00001342,-0.00004808,-0.00009873,-0.00010951,0.00053338,-0.
 00004980,-0.00029207,0.00366709,0.00030218,0.00172949,0.00013577,-0.00
 009743,0.00009057,0.00024108,-0.00000261,0.00019370,0.00000044,0.00006
 868,0.00014251,0.44595158,-0.00099581,-0.00045813,-0.00012811,0.000420
 92,-0.00006698,0.00023612,0.21438723,-0.11186628,-0.02905132,-0.000036
 14,0.00039432,-0.00020431,0.00000722,-0.00020975,0.00005825,0.00004337
 ,-0.00016218,0.00053617,-0.00064351,0.00021911,0.00099768,-0.00393349,
 -0.00229660,-0.00424564,-0.02844385,0.00344706,-0.00165453,0.00049022,
 -0.00086380,0.00064096,0.00020814,0.00059684,0.00015287,-0.00000584,0.
 00005788,-0.00007260,-0.00012263,0.00003500,0.00013579,0.00000477,-0.0
 0000861,0.00004119,0.00000706,0.00000971,-0.00002732,0.00005061,-0.000
 01447,0.00000938,0.00007061,0.00014237,-0.00002241,-0.00190745,0.00116
 979,-0.00019031,0.00002319,0.00016927,-0.00012837,-0.00030069,-0.00004
 798,0.00012385,-0.00008529,-0.00010756,-0.00009823,-0.17923861,0.10986
 100,0.00018900,0.00006596,-0.00003947,0.00010097,0.00016261,0.00045627
 ,0.04162536,-0.04108041,-0.01788141,-0.00172114,-0.00020401,-0.0020366
 8,0.00000521,0.00017423,0.00031052,0.00059992,0.00057763,-0.00051703,0
 .00017582,0.00005267,0.00028194,0.00073782,-0.00011826,-0.00086593,-0.
 02578074,0.00937007,-0.00480761,-0.00336916,-0.00165106,-0.00066569,-0
 .00083233,-0.00013325,-0.00055662,-0.00000158,0.00000258,0.00001580,0.
 00009951,-0.00043373,-0.00001917,0.00006613,-0.00006866,-0.00002948,-0
 .00009700,0.00002139,0.00008867,0.00000626,0.00001694,0.00006754,-0.00
 018279,0.00010521,0.00004297,-0.00001066,-0.00013672,0.00111101,-0.000
 02728,-0.00021992,0.00019508,0.00060374,0.00043543,-0.00076200,0.00028
 790,0.00017042,0.00014518,-0.01247494,0.03289089,0.02546610\\0.0000002
 1,0.00002740,0.00000309,-0.00001428,0.00000812,-0.00001225,0.00001857,
 -0.00003915,0.00000090,-0.00003535,0.00001258,0.00001639,-0.00003678,0
 .00001007,-0.00002990,0.00000199,0.00006633,0.00000289,-0.00003582,-0.
 00003238,-0.00001166,0.00003811,-0.00000688,0.00004033,-0.00000009,-0.
 00000402,-0.00000690,0.00003226,0.00000024,0.00000846,-0.00000255,-0.0
 0003448,-0.00000529,-0.00000659,0.00003674,0.00001525,0.00002882,-0.00
 003268,-0.00001435,-0.00001705,-0.00001147,-0.00001374,-0.00001553,0.0
 0004570,0.00001663,-0.00002263,0.00002621,0.00000946,0.00002000,0.0000
 0582,0.00001196,-0.00000560,-0.00001570,-0.00001568,0.00002188,-0.0000
 0479,0.00001155,0.00001266,-0.00001930,-0.00001314,-0.00000230,0.00000
 557,0.00000528,0.00002008,-0.00004395,-0.00001929\\\@


 ADVERTISING--  HE WHO HAS SOMETHING TO SELL AND GOES AND WHISPERS
                IN A WELL, IS NOT SO APT TO GET THE DOLLARS AS HE
                WHO CLIMBS A TREE AND HOLLERS.

                   -- FROM THE BACK OF A SUGAR PACKET
 Job cpu time:  0 days  6 hours 54 minutes 49.7 seconds.
 File lengths (MBytes):  RWF=    357 Int=      0 D2E=      0 Chk=     16 Scr=      1
 Normal termination of Gaussian 09 at Sat Sep 10 14:55:28 2011.
