 Entering Gaussian System, Link 0=g09
 Initial command:
 /opt/software/gaussian/g09/l1.exe /scratch/Gau-12199.inp -scrdir=/scratch/
 Entering Link 1 = /opt/software/gaussian/g09/l1.exe PID=     12201.
  
 Copyright (c) 1988,1990,1992,1993,1995,1998,2003,2009,2010,
            Gaussian, Inc.  All Rights Reserved.
  
 This is part of the Gaussian(R) 09 program.  It is based on
 the Gaussian(R) 03 system (copyright 2003, Gaussian, Inc.),
 the Gaussian(R) 98 system (copyright 1998, Gaussian, Inc.),
 the Gaussian(R) 94 system (copyright 1995, Gaussian, Inc.),
 the Gaussian 92(TM) system (copyright 1992, Gaussian, Inc.),
 the Gaussian 90(TM) system (copyright 1990, Gaussian, Inc.),
 the Gaussian 88(TM) system (copyright 1988, Gaussian, Inc.),
 the Gaussian 86(TM) system (copyright 1986, Carnegie Mellon
 University), and the Gaussian 82(TM) system (copyright 1983,
 Carnegie Mellon University). Gaussian is a federally registered
 trademark of Gaussian, Inc.
  
 This software contains proprietary and confidential information,
 including trade secrets, belonging to Gaussian, Inc.
  
 This software is provided under written license and may be
 used, copied, transmitted, or stored only in accord with that
 written license.
  
 The following legend is applicable only to US Government
 contracts under FAR:
  
                    RESTRICTED RIGHTS LEGEND
  
 Use, reproduction and disclosure by the US Government is
 subject to restrictions as set forth in subparagraphs (a)
 and (c) of the Commercial Computer Software - Restricted
 Rights clause in FAR 52.227-19.
  
 Gaussian, Inc.
 340 Quinnipiac St., Bldg. 40, Wallingford CT 06492
  
  
 ---------------------------------------------------------------
 Warning -- This program may not be used in any manner that
 competes with the business of Gaussian, Inc. or will provide
 assistance to any competitor of Gaussian, Inc.  The licensee
 of this program is prohibited from giving any competitor of
 Gaussian, Inc. access to this program.  By using this program,
 the user acknowledges that Gaussian, Inc. is engaged in the
 business of creating and licensing software in the field of
 computational chemistry and represents and warrants to the
 licensee that it is not a competitor of Gaussian, Inc. and that
 it will not use this program in any manner prohibited above.
 ---------------------------------------------------------------
  

 Cite this work as:
 Gaussian 09, Revision B.01,
 M. J. Frisch, G. W. Trucks, H. B. Schlegel, G. E. Scuseria, 
 M. A. Robb, J. R. Cheeseman, G. Scalmani, V. Barone, B. Mennucci, 
 G. A. Petersson, H. Nakatsuji, M. Caricato, X. Li, H. P. Hratchian, 
 A. F. Izmaylov, J. Bloino, G. Zheng, J. L. Sonnenberg, M. Hada, 
 M. Ehara, K. Toyota, R. Fukuda, J. Hasegawa, M. Ishida, T. Nakajima, 
 Y. Honda, O. Kitao, H. Nakai, T. Vreven, J. A. Montgomery, Jr., 
 J. E. Peralta, F. Ogliaro, M. Bearpark, J. J. Heyd, E. Brothers, 
 K. N. Kudin, V. N. Staroverov, T. Keith, R. Kobayashi, J. Normand, 
 K. Raghavachari, A. Rendell, J. C. Burant, S. S. Iyengar, J. Tomasi, 
 M. Cossi, N. Rega, J. M. Millam, M. Klene, J. E. Knox, J. B. Cross, 
 V. Bakken, C. Adamo, J. Jaramillo, R. Gomperts, R. E. Stratmann, 
 O. Yazyev, A. J. Austin, R. Cammi, C. Pomelli, J. W. Ochterski, 
 R. L. Martin, K. Morokuma, V. G. Zakrzewski, G. A. Voth, 
 P. Salvador, J. J. Dannenberg, S. Dapprich, A. D. Daniels, 
 O. Farkas, J. B. Foresman, J. V. Ortiz, J. Cioslowski, 
 and D. J. Fox, Gaussian, Inc., Wallingford CT, 2010.
 
 ******************************************
 Gaussian 09:  AM64L-G09RevB.01 12-Aug-2010
                12-Jan-2012 
 ******************************************
 %chk=gaussian/init2/init2_THF+m062Xnorm.chk
 %mem=5GB
 %nproc=1
 Will use up to    1 processors via shared memory.
 Default route:  MaxDisk=200GB
 ----------------------------------------------------------------------
 # freq=(readfc,internalmodes,noraman) m062x/6-31+g(2df,p) nosymm scrf=
 (solvent=ethanol) geom=allcheck guess=read
 ----------------------------------------------------------------------
 1/18=20,29=7,38=1/1,3;
 2/9=110,12=2,15=1,40=1/2;
 7/8=21,25=11,30=1/16;
 99/5=2/99;
 --------------------------------------------------
 init2_THF+m062X from init2_THF+m06 test functional
 --------------------------------------------------
 Redundant internal coordinates taken from checkpoint file:
 gaussian/init2/init2_THF+m062Xnorm.chk
 Charge =  0 Multiplicity = 1
 O,0,0.1605275753,0.0064930302,-0.3909042871
 O,0,-0.0961447439,-0.2005466887,2.3698382996
 O,0,2.3554962608,-0.2023240398,3.7734056712
 O,0,4.322500309,1.5948303473,2.7395270532
 O,0,2.2057589222,0.952237245,-0.1666722627
 O,0,4.9986061166,0.7500153295,-0.6309224691
 C,0,0.961261209,0.7262133033,0.4717700772
 C,0,1.1637972435,-0.0834939026,1.744177107
 C,0,2.1624611723,0.6199832281,2.6442881894
 C,0,3.456265235,0.8806129803,1.888874541
 C,0,3.1378023858,1.6859572888,0.6245211463
 C,0,4.3480117775,1.9442325468,-0.25311249
 O,0,-3.6717609888,1.5111489757,-3.9210399114
 O,0,-0.9888688129,1.8689370291,-4.664800533
 O,0,0.7719521884,2.014765189,-2.4535392837
 O,0,-3.0453684876,0.5652340173,-1.9485346066
 O,0,-2.5906284827,0.4821750879,1.0585424962
 C,0,-2.6558242339,0.8201212296,-3.2787548646
 C,0,-1.4139501904,1.7084932079,-3.3323528146
 C,0,-0.2857031677,1.0870790789,-2.5269036581
 C,0,-0.8097134936,0.7192008164,-1.1425618951
 C,0,-2.0518704918,-0.1614304162,-1.24512592
 C,0,-2.5837610503,-0.5734312549,0.1225577992
 H,0,0.0406844091,-0.5360637659,3.2637600537
 H,0,2.9410361966,0.2608315573,4.3829934325
 H,0,4.3728884843,0.2115116597,-1.1280056853
 H,0,0.4983468474,1.6968413904,0.720227347
 H,0,1.5529842143,-1.0734755544,1.4658594727
 H,0,1.7373338947,1.5890217418,2.9517061477
 H,0,3.904115069,-0.0799151976,1.5983973757
 H,0,2.7019339944,2.6545409994,0.9168771024
 H,0,5.070986537,2.5471281617,0.3022614467
 H,0,4.0301771716,2.5183077123,-1.1329924233
 H,0,-1.7249951041,2.2439099532,-5.161408292
 H,0,1.473041534,1.6360381948,-1.9041902279
 H,0,-1.7876646585,0.4019536753,1.5925876137
 H,0,-2.4454448287,-0.1391446787,-3.7830991371
 H,0,-1.6780739182,2.6772876618,-2.8812833067
 H,0,0.0426873711,0.1661037041,-3.0352791638
 H,0,-1.0897605817,1.6366665107,-0.609529039
 H,0,-1.8061993785,-1.0801797323,-1.8041002531
 H,0,-1.9775483471,-1.4078908246,0.4900420316
 H,0,-3.6117184829,-0.9260663265,-0.0106645128
 H,0,-4.4107098507,0.9167905374,-4.0873829746
 C,0,5.6534258053,1.1076758471,2.7544063887
 H,0,6.2331114305,1.7795884548,3.3883927001
 H,0,5.6889133243,0.0935414946,3.1712255653
 H,0,6.0855216151,1.0904631945,1.7472189533
 Recover connectivity data from disk.

 GradGradGradGradGradGradGradGradGradGradGradGradGradGradGradGradGradGrad
 Berny optimization.
 Initialization pass.
                           ----------------------------
                           !    Initial Parameters    !
                           ! (Angstroms and Degrees)  !
 --------------------------                            --------------------------
 ! Name  Definition              Value          Derivative Info.                !
 --------------------------------------------------------------------------------
 ! R1    R(1,7)                  1.3796         estimate D2E/DX2                !
 ! R2    R(1,21)                 1.4193         estimate D2E/DX2                !
 ! R3    R(2,8)                  1.4116         estimate D2E/DX2                !
 ! R4    R(2,24)                 0.9646         estimate D2E/DX2                !
 ! R5    R(2,36)                 1.9566         estimate D2E/DX2                !
 ! R6    R(3,9)                  1.4101         estimate D2E/DX2                !
 ! R7    R(3,25)                 0.9638         estimate D2E/DX2                !
 ! R8    R(4,10)                 1.4086         estimate D2E/DX2                !
 ! R9    R(4,45)                 1.4174         estimate D2E/DX2                !
 ! R10   R(5,7)                  1.4169         estimate D2E/DX2                !
 ! R11   R(5,11)                 1.4258         estimate D2E/DX2                !
 ! R12   R(6,12)                 1.4114         estimate D2E/DX2                !
 ! R13   R(6,26)                 0.9636         estimate D2E/DX2                !
 ! R14   R(7,8)                  1.5217         estimate D2E/DX2                !
 ! R15   R(7,27)                 1.1037         estimate D2E/DX2                !
 ! R16   R(8,9)                  1.5174         estimate D2E/DX2                !
 ! R17   R(8,28)                 1.0995         estimate D2E/DX2                !
 ! R18   R(9,10)                 1.5207         estimate D2E/DX2                !
 ! R19   R(9,29)                 1.1019         estimate D2E/DX2                !
 ! R20   R(10,11)                1.5325         estimate D2E/DX2                !
 ! R21   R(10,30)                1.0989         estimate D2E/DX2                !
 ! R22   R(11,12)                1.5171         estimate D2E/DX2                !
 ! R23   R(11,31)                1.1016         estimate D2E/DX2                !
 ! R24   R(12,32)                1.093          estimate D2E/DX2                !
 ! R25   R(12,33)                1.0976         estimate D2E/DX2                !
 ! R26   R(13,18)                1.3864         estimate D2E/DX2                !
 ! R27   R(13,44)                0.9628         estimate D2E/DX2                !
 ! R28   R(14,19)                1.4078         estimate D2E/DX2                !
 ! R29   R(14,34)                0.9639         estimate D2E/DX2                !
 ! R30   R(15,20)                1.4088         estimate D2E/DX2                !
 ! R31   R(15,35)                0.9679         estimate D2E/DX2                !
 ! R32   R(16,18)                1.4093         estimate D2E/DX2                !
 ! R33   R(16,22)                1.4177         estimate D2E/DX2                !
 ! R34   R(17,23)                1.4108         estimate D2E/DX2                !
 ! R35   R(17,36)                0.9677         estimate D2E/DX2                !
 ! R36   R(18,19)                1.5279         estimate D2E/DX2                !
 ! R37   R(18,37)                1.104          estimate D2E/DX2                !
 ! R38   R(19,20)                1.5192         estimate D2E/DX2                !
 ! R39   R(19,38)                1.1008         estimate D2E/DX2                !
 ! R40   R(20,21)                1.5252         estimate D2E/DX2                !
 ! R41   R(20,39)                1.102          estimate D2E/DX2                !
 ! R42   R(21,22)                1.5261         estimate D2E/DX2                !
 ! R43   R(21,40)                1.0974         estimate D2E/DX2                !
 ! R44   R(22,23)                1.5242         estimate D2E/DX2                !
 ! R45   R(22,41)                1.1031         estimate D2E/DX2                !
 ! R46   R(23,42)                1.0949         estimate D2E/DX2                !
 ! R47   R(23,43)                1.0949         estimate D2E/DX2                !
 ! R48   R(45,46)                1.0906         estimate D2E/DX2                !
 ! R49   R(45,47)                1.097          estimate D2E/DX2                !
 ! R50   R(45,48)                1.0961         estimate D2E/DX2                !
 ! A1    A(7,1,21)             117.7728         estimate D2E/DX2                !
 ! A2    A(8,2,24)             108.2398         estimate D2E/DX2                !
 ! A3    A(9,3,25)             108.0217         estimate D2E/DX2                !
 ! A4    A(10,4,45)            114.1756         estimate D2E/DX2                !
 ! A5    A(7,5,11)             113.967          estimate D2E/DX2                !
 ! A6    A(12,6,26)            108.1553         estimate D2E/DX2                !
 ! A7    A(1,7,5)              108.1348         estimate D2E/DX2                !
 ! A8    A(1,7,8)              108.8148         estimate D2E/DX2                !
 ! A9    A(1,7,27)             110.8616         estimate D2E/DX2                !
 ! A10   A(5,7,8)              110.1669         estimate D2E/DX2                !
 ! A11   A(5,7,27)             109.2413         estimate D2E/DX2                !
 ! A12   A(8,7,27)             109.6052         estimate D2E/DX2                !
 ! A13   A(2,8,7)              107.2136         estimate D2E/DX2                !
 ! A14   A(2,8,9)              111.2823         estimate D2E/DX2                !
 ! A15   A(2,8,28)             110.699          estimate D2E/DX2                !
 ! A16   A(7,8,9)              109.6895         estimate D2E/DX2                !
 ! A17   A(7,8,28)             108.3329         estimate D2E/DX2                !
 ! A18   A(9,8,28)             109.5493         estimate D2E/DX2                !
 ! A19   A(3,9,8)              107.1419         estimate D2E/DX2                !
 ! A20   A(3,9,10)             112.4111         estimate D2E/DX2                !
 ! A21   A(3,9,29)             110.014          estimate D2E/DX2                !
 ! A22   A(8,9,10)             110.1658         estimate D2E/DX2                !
 ! A23   A(8,9,29)             108.6192         estimate D2E/DX2                !
 ! A24   A(10,9,29)            108.4274         estimate D2E/DX2                !
 ! A25   A(4,10,9)             108.0668         estimate D2E/DX2                !
 ! A26   A(4,10,11)            111.0741         estimate D2E/DX2                !
 ! A27   A(4,10,30)            110.6227         estimate D2E/DX2                !
 ! A28   A(9,10,11)            108.8505         estimate D2E/DX2                !
 ! A29   A(9,10,30)            109.1621         estimate D2E/DX2                !
 ! A30   A(11,10,30)           109.0229         estimate D2E/DX2                !
 ! A31   A(5,11,10)            108.8577         estimate D2E/DX2                !
 ! A32   A(5,11,12)            106.7413         estimate D2E/DX2                !
 ! A33   A(5,11,31)            109.9417         estimate D2E/DX2                !
 ! A34   A(10,11,12)           113.6388         estimate D2E/DX2                !
 ! A35   A(10,11,31)           108.9843         estimate D2E/DX2                !
 ! A36   A(12,11,31)           108.6304         estimate D2E/DX2                !
 ! A37   A(6,12,11)            112.2415         estimate D2E/DX2                !
 ! A38   A(6,12,32)            107.327          estimate D2E/DX2                !
 ! A39   A(6,12,33)            111.1875         estimate D2E/DX2                !
 ! A40   A(11,12,32)           109.1246         estimate D2E/DX2                !
 ! A41   A(11,12,33)           108.771          estimate D2E/DX2                !
 ! A42   A(32,12,33)           108.0813         estimate D2E/DX2                !
 ! A43   A(18,13,44)           109.5577         estimate D2E/DX2                !
 ! A44   A(19,14,34)           107.5401         estimate D2E/DX2                !
 ! A45   A(20,15,35)           108.4041         estimate D2E/DX2                !
 ! A46   A(18,16,22)           111.5501         estimate D2E/DX2                !
 ! A47   A(23,17,36)           107.4619         estimate D2E/DX2                !
 ! A48   A(13,18,16)           108.9574         estimate D2E/DX2                !
 ! A49   A(13,18,19)           106.8313         estimate D2E/DX2                !
 ! A50   A(13,18,37)           111.1667         estimate D2E/DX2                !
 ! A51   A(16,18,19)           111.2809         estimate D2E/DX2                !
 ! A52   A(16,18,37)           109.0696         estimate D2E/DX2                !
 ! A53   A(19,18,37)           109.5303         estimate D2E/DX2                !
 ! A54   A(14,19,18)           110.1759         estimate D2E/DX2                !
 ! A55   A(14,19,20)           108.9164         estimate D2E/DX2                !
 ! A56   A(14,19,38)           111.099          estimate D2E/DX2                !
 ! A57   A(18,19,20)           110.3176         estimate D2E/DX2                !
 ! A58   A(18,19,38)           107.597          estimate D2E/DX2                !
 ! A59   A(20,19,38)           108.7196         estimate D2E/DX2                !
 ! A60   A(15,20,19)           108.4107         estimate D2E/DX2                !
 ! A61   A(15,20,21)           111.6847         estimate D2E/DX2                !
 ! A62   A(15,20,39)           110.5256         estimate D2E/DX2                !
 ! A63   A(19,20,21)           108.9489         estimate D2E/DX2                !
 ! A64   A(19,20,39)           108.5766         estimate D2E/DX2                !
 ! A65   A(21,20,39)           108.6329         estimate D2E/DX2                !
 ! A66   A(1,21,20)            111.5273         estimate D2E/DX2                !
 ! A67   A(1,21,22)            107.5927         estimate D2E/DX2                !
 ! A68   A(1,21,40)            109.6966         estimate D2E/DX2                !
 ! A69   A(20,21,22)           110.9665         estimate D2E/DX2                !
 ! A70   A(20,21,40)           109.0796         estimate D2E/DX2                !
 ! A71   A(22,21,40)           107.9004         estimate D2E/DX2                !
 ! A72   A(16,22,21)           107.9368         estimate D2E/DX2                !
 ! A73   A(16,22,23)           109.829          estimate D2E/DX2                !
 ! A74   A(16,22,41)           109.3627         estimate D2E/DX2                !
 ! A75   A(21,22,23)           112.3156         estimate D2E/DX2                !
 ! A76   A(21,22,41)           109.4742         estimate D2E/DX2                !
 ! A77   A(23,22,41)           107.8947         estimate D2E/DX2                !
 ! A78   A(17,23,22)           113.2506         estimate D2E/DX2                !
 ! A79   A(17,23,42)           110.5033         estimate D2E/DX2                !
 ! A80   A(17,23,43)           108.4897         estimate D2E/DX2                !
 ! A81   A(22,23,42)           108.2979         estimate D2E/DX2                !
 ! A82   A(22,23,43)           107.7885         estimate D2E/DX2                !
 ! A83   A(42,23,43)           108.3723         estimate D2E/DX2                !
 ! A84   A(4,45,46)            107.0652         estimate D2E/DX2                !
 ! A85   A(4,45,47)            110.6158         estimate D2E/DX2                !
 ! A86   A(4,45,48)            111.4645         estimate D2E/DX2                !
 ! A87   A(46,45,47)           109.358          estimate D2E/DX2                !
 ! A88   A(46,45,48)           109.53           estimate D2E/DX2                !
 ! A89   A(47,45,48)           108.7757         estimate D2E/DX2                !
 ! D1    D(21,1,7,5)           -99.3545         estimate D2E/DX2                !
 ! D2    D(21,1,7,8)           140.9858         estimate D2E/DX2                !
 ! D3    D(21,1,7,27)           20.3758         estimate D2E/DX2                !
 ! D4    D(7,1,21,20)           94.9711         estimate D2E/DX2                !
 ! D5    D(7,1,21,22)         -143.1178         estimate D2E/DX2                !
 ! D6    D(7,1,21,40)          -25.989          estimate D2E/DX2                !
 ! D7    D(24,2,8,7)          -167.6608         estimate D2E/DX2                !
 ! D8    D(24,2,8,9)           -47.7126         estimate D2E/DX2                !
 ! D9    D(24,2,8,28)           74.3652         estimate D2E/DX2                !
 ! D10   D(25,3,9,8)          -176.1243         estimate D2E/DX2                !
 ! D11   D(25,3,9,10)           62.7152         estimate D2E/DX2                !
 ! D12   D(25,3,9,29)          -58.2234         estimate D2E/DX2                !
 ! D13   D(45,4,10,9)          134.4887         estimate D2E/DX2                !
 ! D14   D(45,4,10,11)        -106.1759         estimate D2E/DX2                !
 ! D15   D(45,4,10,30)          15.0386         estimate D2E/DX2                !
 ! D16   D(10,4,45,46)         176.1275         estimate D2E/DX2                !
 ! D17   D(10,4,45,47)         -64.7984         estimate D2E/DX2                !
 ! D18   D(10,4,45,48)          56.3616         estimate D2E/DX2                !
 ! D19   D(11,5,7,1)          -179.7002         estimate D2E/DX2                !
 ! D20   D(11,5,7,8)           -60.8957         estimate D2E/DX2                !
 ! D21   D(11,5,7,27)           59.5549         estimate D2E/DX2                !
 ! D22   D(7,5,11,10)           62.1205         estimate D2E/DX2                !
 ! D23   D(7,5,11,12)         -174.8409         estimate D2E/DX2                !
 ! D24   D(7,5,11,31)          -57.1943         estimate D2E/DX2                !
 ! D25   D(26,6,12,11)          60.5336         estimate D2E/DX2                !
 ! D26   D(26,6,12,32)        -179.5745         estimate D2E/DX2                !
 ! D27   D(26,6,12,33)         -61.5646         estimate D2E/DX2                !
 ! D28   D(1,7,8,2)            -65.1763         estimate D2E/DX2                !
 ! D29   D(1,7,8,9)            173.8633         estimate D2E/DX2                !
 ! D30   D(1,7,8,28)            54.3272         estimate D2E/DX2                !
 ! D31   D(5,7,8,2)            176.436          estimate D2E/DX2                !
 ! D32   D(5,7,8,9)             55.4756         estimate D2E/DX2                !
 ! D33   D(5,7,8,28)           -64.0606         estimate D2E/DX2                !
 ! D34   D(27,7,8,2)            56.2047         estimate D2E/DX2                !
 ! D35   D(27,7,8,9)           -64.7557         estimate D2E/DX2                !
 ! D36   D(27,7,8,28)          175.7081         estimate D2E/DX2                !
 ! D37   D(2,8,9,3)             64.1624         estimate D2E/DX2                !
 ! D38   D(2,8,9,10)          -173.2694         estimate D2E/DX2                !
 ! D39   D(2,8,9,29)           -54.6444         estimate D2E/DX2                !
 ! D40   D(7,8,9,3)           -177.3671         estimate D2E/DX2                !
 ! D41   D(7,8,9,10)           -54.7989         estimate D2E/DX2                !
 ! D42   D(7,8,9,29)            63.8261         estimate D2E/DX2                !
 ! D43   D(28,8,9,3)           -58.579          estimate D2E/DX2                !
 ! D44   D(28,8,9,10)           63.9892         estimate D2E/DX2                !
 ! D45   D(28,8,9,29)         -177.3858         estimate D2E/DX2                !
 ! D46   D(3,9,10,4)           -63.6349         estimate D2E/DX2                !
 ! D47   D(3,9,10,11)          175.6326         estimate D2E/DX2                !
 ! D48   D(3,9,10,30)           56.734          estimate D2E/DX2                !
 ! D49   D(8,9,10,4)           176.9527         estimate D2E/DX2                !
 ! D50   D(8,9,10,11)           56.2202         estimate D2E/DX2                !
 ! D51   D(8,9,10,30)          -62.6784         estimate D2E/DX2                !
 ! D52   D(29,9,10,4)           58.2103         estimate D2E/DX2                !
 ! D53   D(29,9,10,11)         -62.5222         estimate D2E/DX2                !
 ! D54   D(29,9,10,30)         178.5791         estimate D2E/DX2                !
 ! D55   D(4,10,11,5)         -176.9748         estimate D2E/DX2                !
 ! D56   D(4,10,11,12)          64.2245         estimate D2E/DX2                !
 ! D57   D(4,10,11,31)         -57.0647         estimate D2E/DX2                !
 ! D58   D(9,10,11,5)          -58.1094         estimate D2E/DX2                !
 ! D59   D(9,10,11,12)        -176.9101         estimate D2E/DX2                !
 ! D60   D(9,10,11,31)          61.8007         estimate D2E/DX2                !
 ! D61   D(30,10,11,5)          60.8763         estimate D2E/DX2                !
 ! D62   D(30,10,11,12)        -57.9244         estimate D2E/DX2                !
 ! D63   D(30,10,11,31)       -179.2136         estimate D2E/DX2                !
 ! D64   D(5,11,12,6)          -63.7778         estimate D2E/DX2                !
 ! D65   D(5,11,12,32)         177.3822         estimate D2E/DX2                !
 ! D66   D(5,11,12,33)          59.6848         estimate D2E/DX2                !
 ! D67   D(10,11,12,6)          56.2287         estimate D2E/DX2                !
 ! D68   D(10,11,12,32)        -62.6113         estimate D2E/DX2                !
 ! D69   D(10,11,12,33)        179.6913         estimate D2E/DX2                !
 ! D70   D(31,11,12,6)         177.7154         estimate D2E/DX2                !
 ! D71   D(31,11,12,32)         58.8754         estimate D2E/DX2                !
 ! D72   D(31,11,12,33)        -58.822          estimate D2E/DX2                !
 ! D73   D(44,13,18,16)        -72.4003         estimate D2E/DX2                !
 ! D74   D(44,13,18,19)        167.2788         estimate D2E/DX2                !
 ! D75   D(44,13,18,37)         47.8283         estimate D2E/DX2                !
 ! D76   D(34,14,19,18)         57.5346         estimate D2E/DX2                !
 ! D77   D(34,14,19,20)        178.6635         estimate D2E/DX2                !
 ! D78   D(34,14,19,38)        -61.6096         estimate D2E/DX2                !
 ! D79   D(35,15,20,19)        177.2665         estimate D2E/DX2                !
 ! D80   D(35,15,20,21)         57.2225         estimate D2E/DX2                !
 ! D81   D(35,15,20,39)        -63.8429         estimate D2E/DX2                !
 ! D82   D(22,16,18,13)        179.0183         estimate D2E/DX2                !
 ! D83   D(22,16,18,19)        -63.4424         estimate D2E/DX2                !
 ! D84   D(22,16,18,37)         57.5046         estimate D2E/DX2                !
 ! D85   D(18,16,22,21)         64.6382         estimate D2E/DX2                !
 ! D86   D(18,16,22,23)       -172.6111         estimate D2E/DX2                !
 ! D87   D(18,16,22,41)        -54.3858         estimate D2E/DX2                !
 ! D88   D(36,17,23,22)        -97.1838         estimate D2E/DX2                !
 ! D89   D(36,17,23,42)         24.5172         estimate D2E/DX2                !
 ! D90   D(36,17,23,43)        143.194          estimate D2E/DX2                !
 ! D91   D(13,18,19,14)        -65.4078         estimate D2E/DX2                !
 ! D92   D(13,18,19,20)        174.3041         estimate D2E/DX2                !
 ! D93   D(13,18,19,38)         55.8495         estimate D2E/DX2                !
 ! D94   D(16,18,19,14)        175.7715         estimate D2E/DX2                !
 ! D95   D(16,18,19,20)         55.4834         estimate D2E/DX2                !
 ! D96   D(16,18,19,38)        -62.9712         estimate D2E/DX2                !
 ! D97   D(37,18,19,14)         55.095          estimate D2E/DX2                !
 ! D98   D(37,18,19,20)        -65.1931         estimate D2E/DX2                !
 ! D99   D(37,18,19,38)        176.3523         estimate D2E/DX2                !
 ! D100  D(14,19,20,15)         66.7132         estimate D2E/DX2                !
 ! D101  D(14,19,20,21)       -171.5495         estimate D2E/DX2                !
 ! D102  D(14,19,20,39)        -53.4007         estimate D2E/DX2                !
 ! D103  D(18,19,20,15)       -172.2445         estimate D2E/DX2                !
 ! D104  D(18,19,20,21)        -50.5072         estimate D2E/DX2                !
 ! D105  D(18,19,20,39)         67.6416         estimate D2E/DX2                !
 ! D106  D(38,19,20,15)        -54.4792         estimate D2E/DX2                !
 ! D107  D(38,19,20,21)         67.2581         estimate D2E/DX2                !
 ! D108  D(38,19,20,39)       -174.593          estimate D2E/DX2                !
 ! D109  D(15,20,21,1)         -66.4246         estimate D2E/DX2                !
 ! D110  D(15,20,21,22)        173.6345         estimate D2E/DX2                !
 ! D111  D(15,20,21,40)         54.8949         estimate D2E/DX2                !
 ! D112  D(19,20,21,1)         173.848          estimate D2E/DX2                !
 ! D113  D(19,20,21,22)         53.9072         estimate D2E/DX2                !
 ! D114  D(19,20,21,40)        -64.8325         estimate D2E/DX2                !
 ! D115  D(39,20,21,1)          55.7346         estimate D2E/DX2                !
 ! D116  D(39,20,21,22)        -64.2063         estimate D2E/DX2                !
 ! D117  D(39,20,21,40)        177.0541         estimate D2E/DX2                !
 ! D118  D(1,21,22,16)         177.6811         estimate D2E/DX2                !
 ! D119  D(1,21,22,23)          56.4649         estimate D2E/DX2                !
 ! D120  D(1,21,22,41)         -63.3658         estimate D2E/DX2                !
 ! D121  D(20,21,22,16)        -60.0601         estimate D2E/DX2                !
 ! D122  D(20,21,22,23)        178.7237         estimate D2E/DX2                !
 ! D123  D(20,21,22,41)         58.893          estimate D2E/DX2                !
 ! D124  D(40,21,22,16)         59.3882         estimate D2E/DX2                !
 ! D125  D(40,21,22,23)        -61.828          estimate D2E/DX2                !
 ! D126  D(40,21,22,41)        178.3413         estimate D2E/DX2                !
 ! D127  D(16,22,23,17)        -77.1883         estimate D2E/DX2                !
 ! D128  D(16,22,23,42)        159.8828         estimate D2E/DX2                !
 ! D129  D(16,22,23,43)         42.8347         estimate D2E/DX2                !
 ! D130  D(21,22,23,17)         42.9366         estimate D2E/DX2                !
 ! D131  D(21,22,23,42)        -79.9923         estimate D2E/DX2                !
 ! D132  D(21,22,23,43)        162.9595         estimate D2E/DX2                !
 ! D133  D(41,22,23,17)        163.6818         estimate D2E/DX2                !
 ! D134  D(41,22,23,42)         40.7529         estimate D2E/DX2                !
 ! D135  D(41,22,23,43)        -76.2953         estimate D2E/DX2                !
 --------------------------------------------------------------------------------
 Trust Radius=3.00D-01 FncErr=1.00D-07 GrdErr=1.00D-07
 Number of steps in this run=    284 maximum allowed number of steps=    288.
 GradGradGradGradGradGradGradGradGradGradGradGradGradGradGradGradGradGrad

                          Input orientation:                          
 ---------------------------------------------------------------------
 Center     Atomic      Atomic             Coordinates (Angstroms)
 Number     Number       Type             X           Y           Z
 ---------------------------------------------------------------------
      1          8           0        0.160528    0.006493   -0.390904
      2          8           0       -0.096145   -0.200547    2.369838
      3          8           0        2.355496   -0.202324    3.773406
      4          8           0        4.322500    1.594830    2.739527
      5          8           0        2.205759    0.952237   -0.166672
      6          8           0        4.998606    0.750015   -0.630922
      7          6           0        0.961261    0.726213    0.471770
      8          6           0        1.163797   -0.083494    1.744177
      9          6           0        2.162461    0.619983    2.644288
     10          6           0        3.456265    0.880613    1.888875
     11          6           0        3.137802    1.685957    0.624521
     12          6           0        4.348012    1.944233   -0.253112
     13          8           0       -3.671761    1.511149   -3.921040
     14          8           0       -0.988869    1.868937   -4.664801
     15          8           0        0.771952    2.014765   -2.453539
     16          8           0       -3.045368    0.565234   -1.948535
     17          8           0       -2.590628    0.482175    1.058542
     18          6           0       -2.655824    0.820121   -3.278755
     19          6           0       -1.413950    1.708493   -3.332353
     20          6           0       -0.285703    1.087079   -2.526904
     21          6           0       -0.809713    0.719201   -1.142562
     22          6           0       -2.051870   -0.161430   -1.245126
     23          6           0       -2.583761   -0.573431    0.122558
     24          1           0        0.040684   -0.536064    3.263760
     25          1           0        2.941036    0.260832    4.382993
     26          1           0        4.372888    0.211512   -1.128006
     27          1           0        0.498347    1.696841    0.720227
     28          1           0        1.552984   -1.073476    1.465859
     29          1           0        1.737334    1.589022    2.951706
     30          1           0        3.904115   -0.079915    1.598397
     31          1           0        2.701934    2.654541    0.916877
     32          1           0        5.070987    2.547128    0.302261
     33          1           0        4.030177    2.518308   -1.132992
     34          1           0       -1.724995    2.243910   -5.161408
     35          1           0        1.473042    1.636038   -1.904190
     36          1           0       -1.787665    0.401954    1.592588
     37          1           0       -2.445445   -0.139145   -3.783099
     38          1           0       -1.678074    2.677288   -2.881283
     39          1           0        0.042687    0.166104   -3.035279
     40          1           0       -1.089761    1.636667   -0.609529
     41          1           0       -1.806199   -1.080180   -1.804100
     42          1           0       -1.977548   -1.407891    0.490042
     43          1           0       -3.611718   -0.926066   -0.010665
     44          1           0       -4.410710    0.916791   -4.087383
     45          6           0        5.653426    1.107676    2.754406
     46          1           0        6.233111    1.779588    3.388393
     47          1           0        5.688913    0.093541    3.171226
     48          1           0        6.085522    1.090463    1.747219
 ---------------------------------------------------------------------
                    Distance matrix (angstroms):
                    1          2          3          4          5
     1  O    0.000000
     2  O    2.780368   0.000000
     3  O    4.712003   2.824986   0.000000
     4  O    5.444670   4.783772   2.857932   0.000000
     5  O    2.264439   3.614078   4.108485   3.652330   0.000000
     6  O    4.900759   5.988708   5.224087   3.539882   2.838383
     7  C    1.379630   2.362129   3.702279   4.146703   1.416852
     8  C    2.360767   1.411597   2.356276   3.712802   2.410346
     9  C    3.687343   2.418655   1.410092   2.371743   2.830860
    10  C    4.101629   3.744309   2.436371   1.408574   2.407108
    11  C    3.565930   4.130792   3.754076   2.425915   1.425846
    12  C    4.616150   5.588423   4.979023   3.013076   2.362366
    13  O    5.423309   7.435730   9.923120  10.405689   6.996635
    14  O    4.801666   7.386871   9.310114   9.116460   5.592776
    15  O    2.943036   5.378306   6.796907   6.304814   2.900781
    16  O    3.607793   5.285138   7.905636   8.793377   5.558700
    17  O    3.145795   2.899665   5.683588   7.201046   4.972669
    18  C    4.115035   6.284929   8.711584   9.247535   5.773864
    19  C    3.745384   6.155975   8.267512   8.353892   4.867828
    20  C    2.435012   5.066754   6.952150   7.016313   3.434568
    21  C    1.419264   3.700280   5.918995   6.494379   3.178009
    22  C    2.377519   4.110275   6.679237   7.719748   4.531084
    23  C    2.851504   3.373062   6.153265   7.697164   5.034960
    24  H    3.696661   0.964567   2.393632   4.811390   4.320932
    25  H    5.530463   3.672891   0.963830   2.527643   4.660272
    26  H    4.281277   5.690076   5.316480   4.107788   2.483805
    27  H    2.050857   2.583548   4.046941   4.325752   2.063076
    28  H    2.559851   2.073357   2.593781   4.051210   2.682310
    29  H    4.020418   2.627312   2.065487   2.593866   3.217017
    30  H    4.240193   4.075752   2.672801   2.069298   2.658049
    31  H    3.896306   4.253453   4.054806   2.659187   2.078006
    32  H    5.572065   6.206757   5.194441   2.721648   3.312568
    33  H    4.672697   6.057105   5.854839   3.991825   2.591303
    34  H    5.596333   8.083823  10.122518   9.970872   6.485880
    35  H    2.582275   4.909451   6.032694   5.448415   2.005848
    36  H    2.808217   1.956621   4.720900   6.330288   4.398322
    37  H    4.280104   6.586473   8.952865   9.558054   5.991941
    38  H    4.088470   6.193441   8.297393   8.292895   5.042724
    39  H    2.651807   5.419317   7.200209   7.328468   3.677743
    40  H    2.066031   3.638579   5.870417   6.364786   3.394851
    41  H    2.654429   4.595629   7.014194   8.084627   4.786199
    42  H    2.710704   2.920786   5.568585   7.332607   4.847838
    43  H    3.904368   4.307253   7.102862   8.767571   6.115178
    44  H    5.948849   7.845994  10.431968  11.105647   7.690961
    45  C    6.424758   5.909052   3.691991   1.417358   4.521423
    46  H    7.369072   6.709536   4.371740   2.026227   5.435307
    47  H    6.577188   5.847701   3.400269   2.075408   4.900131
    48  H    6.391566   6.345657   4.437321   2.085019   4.328354
                    6          7          8          9         10
     6  O    0.000000
     7  C    4.185290   0.000000
     8  C    4.587112   1.521731   0.000000
     9  C    4.334470   2.484754   1.517369   0.000000
    10  C    2.957237   2.873512   2.491154   1.520693   0.000000
    11  C    2.432019   2.383647   2.877722   2.483355   1.532510
    12  C    1.411442   3.671390   4.270839   3.863314   2.552373
    13  O    9.304809   6.432558   7.617099   8.828129   9.217453
    14  O    7.305752   5.611879   7.037112   8.056894   7.980392
    15  O    4.773482   3.202130   4.709252   5.465050   5.229569
    16  O    8.153268   4.683681   5.636847   6.943955   7.556217
    17  O    7.779622   3.608293   3.858211   5.012528   6.116627
    18  C    8.099768   5.211388   6.374627   7.637956   8.004105
    19  C    7.024050   4.591062   5.968849   7.049526   7.187879
    20  C    5.624258   3.267597   4.659766   5.740463   5.791723
    21  C    5.830892   2.396345   3.587802   4.814966   5.235861
    22  C    7.135629   3.579749   4.391187   5.787810   6.422412
    23  C    7.733792   3.791861   4.112649   5.505451   6.458795
    24  H    6.434558   3.199377   1.943022   2.494419   3.945057
    25  H    5.441714   4.408374   3.200077   1.938624   2.621110
    26  H    0.963639   3.803078   4.316796   4.391246   3.223269
    27  H    4.793164   1.103694   2.158910   2.762410   3.283481
    28  H    4.426502   2.139446   1.099541   2.151269   2.760413
    29  H    4.916814   2.738030   2.141116   1.101941   2.141537
    30  H    2.618504   3.252618   2.744195   2.148745   1.098891
    31  H    3.361191   2.635623   3.247634   2.722941   2.158846
    32  H    2.026249   4.498256   4.925994   4.202201   2.811039
    33  H    2.077688   3.899373   4.823236   4.621672   3.484695
    34  H    8.244018   6.422778   7.838944   8.870082   8.854972
    35  H    3.851734   2.595166   4.045121   4.711297   4.346399
    36  H    7.149728   2.986297   2.994957   4.093544   5.274059
    37  H    8.132694   5.518913   6.601553   7.944834   8.248719
    38  H    7.304557   4.692094   6.090405   7.036629   7.234907
    39  H    5.539225   3.668364   4.915525   6.079221   6.034097
    40  H    6.152627   2.490948   3.684753   4.711467   5.242136
    41  H    7.143622   4.012665   4.733343   6.199111   6.721332
    42  H    7.387818   3.631988   3.632483   5.088490   6.059729
    43  H    8.793842   4.886196   5.157029   6.540657   7.538483
    44  H   10.025476   7.048423   8.129132   9.413292   9.879588
    45  C    3.466578   5.231859   4.753547   3.526585   2.372386
    46  H    4.328847   6.116265   5.645571   4.297507   3.281400
    47  H    3.919670   5.480696   4.748103   3.604257   2.692327
    48  H    2.636825   5.293155   5.059798   4.051727   2.641419
                   11         12         13         14         15
    11  C    0.000000
    12  C    1.517087   0.000000
    13  O    8.189190   8.829383   0.000000
    14  O    6.711171   6.924663   2.806974   0.000000
    15  O    3.896129   4.199411   4.706780   2.830447   0.000000
    16  O    6.790305   7.709615   2.275500   3.647867   4.114378
    17  O    5.869616   7.211295   5.198449   6.102901   5.098088
    18  C    7.039272   7.711800   1.386426   2.408293   3.722607
    19  C    6.031236   6.537392   2.341625   1.407783   2.375770
    20  C    4.691537   5.232223   3.686304   2.382509   1.408765
    21  C    4.431713   5.375310   4.066748   3.709468   2.428748
    22  C    5.817313   6.810022   3.547123   4.116617   3.764315
    23  C    6.171960   7.384391   4.677596   5.606036   4.959420
    24  H    4.636281   6.088787   8.342343   8.349017   6.303094
    25  H    4.024402   5.129025  10.688749   9.994635   7.383725
    26  H    2.602072   1.941231   8.614318   6.633583   4.239753
    27  H    2.641213   3.978506   6.242247   5.589271   3.201364
    28  H    3.291499   4.457982   7.937061   7.259738   5.050636
    29  H    2.717811   4.148816   8.746371   8.094548   5.507259
    30  H    2.157308   2.778904   9.507343   8.183335   5.533202
    31  H    1.101639   2.140791   8.083117   6.737531   3.936223
    32  H    2.140717   1.092985   9.764485   7.864699   5.134155
    33  H    2.139625   1.097620   8.252723   6.171400   3.551539
    34  H    7.578594   7.814255   2.421848   0.963901   3.690502
    35  H    3.027920   3.329639   5.527411   3.706240   0.967856
    36  H    5.181317   6.590278   5.931292   6.476498   5.052123
    37  H    7.343757   7.934250   2.060667   2.632756   4.093739
    38  H    6.038714   6.615010   2.532935   2.075902   2.573816
    39  H    5.028303   5.425681   4.048561   2.572759   2.070700
    40  H    4.404270   5.458113   4.201022   4.063171   2.647510
    41  H    6.163836   7.030430   3.831023   4.189144   4.080113
    42  H    5.979698   7.197341   5.554169   6.187689   5.285735
    43  H    7.265133   8.464910   4.608108   6.029292   5.816588
    44  H    8.931612   9.616261   0.962797   3.598471   5.543914
    45  C    3.346518   3.383652  11.475342   9.987203   7.195436
    46  H    4.150746   4.103811  12.312854  10.817528   8.000484
    47  H    3.940769   4.116936  11.829288  10.447397   7.713986
    48  H    3.210002   2.783736  11.292064   9.579510   6.836280
                   16         17         18         19         20
    16  O    0.000000
    17  O    3.042400   0.000000
    18  C    1.409325   4.350932   0.000000
    19  C    2.425597   4.708332   1.527851   0.000000
    20  C    2.867505   4.305115   2.500804   1.519159   0.000000
    21  C    2.381481   2.841250   2.825178   2.477698   1.525229
    22  C    1.417696   2.451811   2.337488   2.874034   2.514175
    23  C    2.408125   1.410822   3.676426   4.302562   3.880465
    24  H    6.156671   3.581006   7.205199   7.117774   6.022699
    25  H    8.718827   6.457575   9.504738   8.977093   7.670802
    26  H    7.471876   7.303754   7.375563   6.370840   4.942268
    27  H    4.578291   3.336411   5.168103   4.481118   3.395645
    28  H    5.957206   4.444714   6.618999   6.290063   4.898053
    29  H    6.923492   4.851849   7.662225   7.030950   5.861723
    30  H    7.828938   6.541336   8.223715   7.469439   5.994544
    31  H    6.753316   5.722802   7.047978   5.990949   4.821052
    32  H    8.652699   7.970968   8.689640   7.481185   6.231376
    33  H    7.385320   7.265241   7.224316   5.927184   4.755862
    34  H    3.857965   6.522332   2.537322   1.931027   3.217209
    35  H    4.643772   5.159709   4.427491   3.221742   1.944816
    36  H    3.761386   0.967673   4.965737   5.108987   4.437961
    37  H    2.054674   4.883504   1.103999   2.163543   2.783188
    38  H    2.683335   4.601467   2.136129   1.100812   2.143139
    39  H    3.297940   4.877871   2.787290   2.142198   1.102035
    40  H    2.601020   2.523473   3.200636   2.742996   2.150553
    41  H    2.064894   3.354252   2.551002   3.204077   2.744333
    42  H    3.313626   2.066739   4.430342   4.963889   4.264877
    43  H    2.509994   2.041806   3.826659   4.775427   4.631047
    44  H    2.561722   5.475595   1.934644   3.190209   4.413590
    45  C    9.903581   8.439884  10.272554   9.346519   7.947699
    46  H   10.772541   9.217910  11.152785  10.180915   8.829793
    47  H   10.135192   8.553670  10.571888   9.765002   8.315758
    48  H    9.864462   8.724670  10.086854   9.078881   7.672069
                   21         22         23         24         25
    21  C    0.000000
    22  C    1.526101   0.000000
    23  C    2.533509   1.524208   0.000000
    24  H    4.659886   4.984896   4.093441   0.000000
    25  H    6.694026   7.535459   7.026428   3.209325   0.000000
    26  H    5.207430   6.436640   7.111611   6.214054   5.694185
    27  H    2.477254   3.717445   3.874369   3.415389   4.630843
    28  H    3.949670   4.601765   4.378032   2.410043   3.495245
    29  H    4.899701   5.919084   5.599299   2.737149   2.293812
    30  H    5.511046   6.600457   6.671896   4.231737   2.966076
    31  H    4.507605   5.933179   6.244143   4.771799   4.219120
    32  H    6.325462   7.775975   8.268334   6.601552   5.139671
    33  H    5.163470   6.647170   7.408066   6.676576   6.058756
    34  H    4.394725   4.607578   6.049396   9.045957  10.807407
    35  H    2.575197   4.011267   5.044513   5.785964   6.601127
    36  H    2.921999   2.905138   1.935493   2.648689   5.492440
    37  H    3.222547   2.568405   3.932161   7.483088   9.790773
    38  H    2.758860   3.297735   4.517799   7.144321   8.941205
    39  H    2.148228   2.774725   4.173377   6.338055   7.964934
    40  H    1.097403   2.136069   2.766319   4.582688   6.562433
    41  H    2.160645   1.103135   2.138553   5.421278   7.912944
    42  H    2.924680   2.137755   1.094925   3.539330   6.490931
    43  H    3.440832   2.131124   1.094896   4.920773   7.978192
    44  H    4.655984   3.847741   4.825153   8.715790  11.235022
    45  C    7.557079   8.773738   8.809313   5.870621   3.275133
    46  H    8.441289   9.689065   9.692245   6.612407   3.759470
    47  H    7.825111   8.915655   8.841740   5.683965   3.007856
    48  H    7.485515   8.760052   8.975775   6.440927   4.186094
                   26         27         28         29         30
    26  H    0.000000
    27  H    4.542493   0.000000
    28  H    4.041187   3.056613   0.000000
    29  H    5.048537   2.554645   3.054606   0.000000
    30  H    2.781717   3.940470   2.555884   3.051514   0.000000
    31  H    3.597503   2.410738   3.939489   2.491247   3.063815
    32  H    2.826324   4.669766   5.180644   4.364718   3.153239
    33  H    2.332120   4.072230   5.078526   4.775507   3.771889
    34  H    7.588357   6.311590   8.103757   8.845294   9.098462
    35  H    3.322778   2.800231   4.324938   4.863311   4.595948
    36  H    6.737233   2.768320   3.654160   3.960044   5.712144
    37  H    7.325445   5.684778   6.664231   8.114173   8.323516
    38  H    6.765218   4.320759   6.588294   6.846393   7.670107
    39  H    4.731849   4.081006   4.906914   6.382830   6.036730
    40  H    5.669252   2.072187   4.316967   4.547211   5.723669
    41  H    6.348756   4.403977   4.687942   6.503765   6.721995
    42  H    6.750451   3.977739   3.678140   5.370440   6.130737
    43  H    8.142265   4.930161   5.373640   6.611631   7.732581
    44  H    9.295533   6.915232   8.388403   9.370118  10.122146
    45  C    4.185213   5.573136   4.819896   3.950493   2.409734
    46  H    5.130024   6.325621   5.808588   4.520954   3.476501
    47  H    4.497691   5.959861   4.623431   4.230795   2.385242
    48  H    3.460142   5.713049   5.030476   4.539393   2.480014
                   31         32         33         34         35
    31  H    0.000000
    32  H    2.449837   0.000000
    33  H    2.446376   1.773152   0.000000
    34  H    7.530729   8.725193   7.030323   0.000000
    35  H    3.241288   4.317838   2.812843   4.605042   0.000000
    36  H    5.068257   7.301220   6.764246   7.000942   4.937877
    37  H    7.509325   8.966771   7.484571   2.845652   4.694263
    38  H    5.797500   7.463358   5.972096   2.321419   3.459543
    39  H    5.374333   6.487854   5.005161   3.458671   2.342217
    40  H    4.212236   6.294053   5.221596   4.635933   2.871255
    41  H    6.455627   8.055421   6.889324   4.725218   4.259258
    42  H    6.211529   8.084509   7.358128   6.733374   5.186947
    43  H    7.317328   9.356835   8.457062   6.335506   6.000384
    44  H    8.868602  10.574949   9.085255   3.182427   6.316817
    45  C    3.805340   2.902460   4.442599  10.880820   6.281505
    46  H    4.398084   3.385832   5.083458  11.689574   7.119713
    47  H    4.534628   3.825294   5.211256  11.358825   6.775892
    48  H    3.818962   2.288899   3.815599  10.491127   5.908080
                   36         37         38         39         40
    36  H    0.000000
    37  H    5.442745   0.000000
    38  H    5.020426   3.055228   0.000000
    39  H    4.982265   2.615954   3.048078   0.000000
    40  H    2.619333   3.881099   2.567075   3.054383   0.000000
    41  H    3.706016   2.282678   3.910921   2.547039   3.053119
    42  H    2.127722   4.482006   5.305111   4.357373   3.356569
    43  H    2.767892   4.026252   4.996358   4.867834   3.645067
    44  H    6.277538   2.251634   3.467178   4.637154   4.862344
    45  C    7.564238  10.482616   9.379529   8.117106   7.554234
    46  H    8.334005  11.420559  10.134178   9.065773   8.344355
    47  H    7.647642  10.704418   9.878315   8.390818   7.913644
    48  H    7.904747  10.240788   9.176844   7.761609   7.572138
                   41         42         43         44         45
    41  H    0.000000
    42  H    2.323756   0.000000
    43  H    2.549522   1.775774   0.000000
    44  H    3.998093   5.681306   4.544683   0.000000
    45  C    9.011809   8.347885   9.880517  12.171004   0.000000
    46  H    9.988532   9.272292  10.760801  13.035435   1.090615
    47  H    9.072387   8.259399   9.882600  12.464651   1.097026
    48  H    8.922041   8.534364  10.059474  12.010146   1.096097
                   46         47         48
    46  H    0.000000
    47  H    1.784956   0.000000
    48  H    1.786093   1.782960   0.000000
 Symmetry turned off by external request.
 Stoichiometry    C13H24O11
 Framework group  C1[X(C13H24O11)]
 Deg. of freedom   138
 Full point group                 C1      NOp   1
 Rotational constants (GHZ):      0.4304023      0.1322034      0.1053130
 Electric field and nuclear coordinate derivatives read from checkpoint file.
 Full mass-weighted force constant matrix:
 Low frequencies ---   -9.1319    0.0006    0.0009    0.0011    6.5853   11.1876
 Low frequencies ---   21.9348   36.4204   52.4752
 Harmonic frequencies (cm**-1), IR intensities (KM/Mole), Raman scattering
 activities (A**4/AMU), depolarization ratios for plane and unpolarized
 incident light, reduced masses (AMU), force constants (mDyne/A),
 and normal coordinates:
                     1                      2                      3
                     A                      A                      A
 Frequencies --    21.4012                36.3734                52.4350
 Red. masses --     6.2779                 5.2507                 5.5615
 Frc consts  --     0.0017                 0.0041                 0.0090
 IR Inten    --     2.8118                 0.5279                 1.2486
  Atom  AN      X      Y      Z        X      Y      Z        X      Y      Z
     1   8     0.00  -0.01  -0.01     0.02  -0.08  -0.05    -0.10  -0.06   0.11
     2   8     0.03  -0.15  -0.01     0.02  -0.12  -0.06     0.01  -0.03   0.11
     3   8     0.05  -0.17  -0.04    -0.03   0.06   0.01     0.09  -0.01   0.02
     4   8    -0.03  -0.03   0.04    -0.10   0.15   0.01    -0.01   0.06  -0.07
     5   8    -0.03   0.05   0.03     0.04  -0.11  -0.04    -0.08  -0.08   0.02
     6   8    -0.02   0.22  -0.01     0.08  -0.09   0.08    -0.10   0.01  -0.11
     7   6    -0.02  -0.03   0.02     0.03  -0.09  -0.05    -0.06  -0.06   0.07
     8   6     0.02  -0.09  -0.02     0.03  -0.07  -0.04    -0.01  -0.04   0.07
     9   6     0.01  -0.11   0.01    -0.03   0.00  -0.03     0.03  -0.02   0.02
    10   6    -0.01  -0.01   0.01    -0.01   0.04   0.01     0.00   0.01  -0.03
    11   6    -0.06   0.05   0.06     0.01  -0.05  -0.05    -0.07  -0.03  -0.04
    12   6    -0.08   0.16   0.06     0.03  -0.08  -0.03    -0.12   0.00  -0.10
    13   8     0.01   0.03  -0.01    -0.03   0.18   0.11     0.13   0.08  -0.08
    14   8     0.02  -0.17  -0.08    -0.04   0.04   0.01     0.18  -0.01   0.05
    15   8     0.06  -0.15  -0.12     0.05  -0.11  -0.05     0.04  -0.01   0.14
    16   8    -0.01   0.10   0.03    -0.01   0.07   0.05     0.00   0.05  -0.05
    17   8     0.09   0.21   0.04     0.05  -0.02   0.01    -0.03  -0.07   0.02
    18   6    -0.02   0.00   0.01    -0.05   0.09   0.04     0.07   0.05  -0.04
    19   6     0.03  -0.07  -0.06     0.00   0.03   0.02     0.10   0.01   0.02
    20   6     0.01  -0.09  -0.05     0.00  -0.05  -0.04     0.05  -0.01   0.09
    21   6     0.02   0.01  -0.02     0.02  -0.05  -0.03    -0.03  -0.02   0.05
    22   6    -0.04   0.07   0.05    -0.02   0.00  -0.01    -0.05   0.01  -0.02
    23   6    -0.03   0.17   0.08     0.01  -0.01   0.00    -0.11  -0.01  -0.05
    24   1     0.05  -0.18  -0.02     0.03  -0.07  -0.04     0.04  -0.04   0.11
    25   1     0.04  -0.18  -0.02    -0.07   0.10   0.01     0.11   0.01  -0.01
    26   1     0.00   0.22  -0.04     0.11  -0.15   0.09    -0.10  -0.02  -0.08
    27   1    -0.05  -0.06   0.08     0.04  -0.08  -0.06    -0.03  -0.05   0.07
    28   1     0.04  -0.06  -0.07     0.09  -0.06  -0.01    -0.01  -0.04   0.07
    29   1    -0.02  -0.14   0.07    -0.09   0.00  -0.08     0.02  -0.02   0.03
    30   1     0.02   0.02  -0.06     0.06   0.05   0.09     0.02   0.02  -0.02
    31   1    -0.11   0.01   0.12    -0.02  -0.04  -0.13    -0.09  -0.04  -0.04
    32   1    -0.11   0.16   0.10    -0.01  -0.02  -0.06    -0.12   0.03  -0.15
    33   1    -0.12   0.20   0.10     0.04  -0.16  -0.09    -0.19  -0.03  -0.10
    34   1     0.03  -0.15  -0.08    -0.04   0.08   0.04     0.22   0.01   0.01
    35   1     0.02  -0.12  -0.04     0.04  -0.15  -0.06     0.03  -0.03   0.15
    36   1     0.07   0.12   0.06     0.05  -0.05   0.00    -0.03  -0.14   0.00
    37   1    -0.09  -0.04   0.06    -0.12   0.10   0.00     0.07   0.04  -0.03
    38   1     0.10  -0.03  -0.11     0.07   0.03   0.06     0.10   0.02   0.01
    39   1    -0.05  -0.14  -0.01    -0.07  -0.06  -0.07     0.07  -0.01   0.10
    40   1     0.08   0.05  -0.06     0.06  -0.05  -0.01    -0.04  -0.02   0.05
    41   1    -0.10   0.03   0.09    -0.07   0.01  -0.04    -0.04   0.02  -0.03
    42   1    -0.09   0.13   0.09     0.01  -0.03  -0.03    -0.20  -0.09  -0.09
    43   1    -0.07   0.25   0.13     0.00   0.00   0.02    -0.14   0.09  -0.09
    44   1    -0.03   0.06   0.04    -0.08   0.23   0.12     0.11   0.11  -0.11
    45   6    -0.01   0.02  -0.01    -0.07   0.26   0.10     0.03   0.16  -0.17
    46   1    -0.03   0.01   0.03    -0.15   0.34   0.09     0.02   0.21  -0.20
    47   1     0.04   0.00  -0.07     0.00   0.29   0.15     0.14   0.16  -0.17
    48   1    -0.02   0.11  -0.01    -0.02   0.24   0.12    -0.03   0.20  -0.19
                     4                      5                      6
                     A                      A                      A
 Frequencies --    64.7202                81.5086                94.0681
 Red. masses --     5.8646                 4.7706                 5.9413
 Frc consts  --     0.0145                 0.0187                 0.0310
 IR Inten    --     1.0193                 3.0431                 4.9134
  Atom  AN      X      Y      Z        X      Y      Z        X      Y      Z
     1   8     0.02  -0.02   0.01     0.00  -0.06  -0.02     0.04  -0.10  -0.02
     2   8    -0.04   0.15   0.04    -0.08   0.17   0.00     0.00  -0.07   0.00
     3   8    -0.04   0.09   0.04    -0.03  -0.04  -0.01    -0.06   0.16   0.07
     4   8     0.05  -0.06   0.00    -0.01  -0.08   0.01     0.00   0.00  -0.02
     5   8     0.00   0.02   0.02     0.05  -0.15  -0.02    -0.01  -0.03   0.01
     6   8    -0.02   0.13  -0.03     0.22   0.15   0.10    -0.14   0.04  -0.16
     7   6    -0.01   0.03   0.01     0.03  -0.06  -0.04    -0.01  -0.07  -0.01
     8   6    -0.04   0.07   0.04    -0.05   0.01   0.01     0.01  -0.03   0.02
     9   6    -0.01   0.07   0.02     0.00  -0.04  -0.01    -0.04   0.06   0.00
    10   6    -0.01   0.01   0.01     0.01  -0.07  -0.01    -0.03   0.02   0.00
    11   6    -0.02   0.04   0.03     0.00  -0.08  -0.01    -0.04   0.01   0.00
    12   6    -0.03   0.10   0.03     0.00   0.05   0.03    -0.06   0.04  -0.02
    13   8    -0.01   0.24   0.15     0.00  -0.05  -0.01     0.04  -0.06  -0.01
    14   8     0.01  -0.07  -0.03    -0.03   0.11   0.05    -0.03   0.29   0.11
    15   8     0.09  -0.19  -0.09     0.00  -0.04   0.03     0.08  -0.12  -0.02
    16   8     0.01   0.02   0.03    -0.01  -0.04  -0.01     0.03  -0.10  -0.03
    17   8    -0.06  -0.18  -0.04    -0.10   0.10  -0.05     0.10   0.15  -0.04
    18   6    -0.04   0.09   0.03     0.01  -0.02   0.00     0.06  -0.03   0.00
    19   6     0.04  -0.03  -0.01    -0.02   0.02   0.04     0.01   0.04   0.09
    20   6     0.02  -0.11  -0.04    -0.01  -0.02   0.01     0.03  -0.06  -0.03
    21   6     0.02  -0.05  -0.03    -0.01  -0.05   0.00     0.05  -0.09  -0.03
    22   6     0.02  -0.05  -0.05    -0.02  -0.03   0.01     0.03  -0.07   0.01
    23   6     0.04  -0.15  -0.07    -0.04   0.04   0.03     0.02   0.07   0.05
    24   1    -0.07   0.13   0.04    -0.13   0.16   0.00     0.00  -0.01   0.02
    25   1     0.00   0.07   0.02     0.02  -0.08  -0.03    -0.05   0.21   0.03
    26   1    -0.02   0.14  -0.05     0.35   0.04   0.04    -0.22   0.10  -0.12
    27   1    -0.03   0.03  -0.04     0.07  -0.02  -0.10    -0.04  -0.08  -0.02
    28   1    -0.07   0.05   0.09    -0.15  -0.05   0.08     0.06  -0.02   0.06
    29   1     0.02   0.09   0.00     0.04  -0.02  -0.01    -0.07   0.08  -0.09
    30   1    -0.07  -0.01  -0.03     0.01  -0.08   0.01    -0.06   0.01   0.00
    31   1    -0.04   0.02   0.05    -0.08  -0.12  -0.01    -0.07   0.00  -0.01
    32   1    -0.04   0.08   0.06    -0.13   0.20   0.03    -0.01  -0.04   0.00
    33   1    -0.05   0.14   0.06    -0.06  -0.03  -0.01    -0.07   0.14   0.04
    34   1     0.02   0.00   0.00    -0.05   0.10   0.07    -0.09   0.26   0.18
    35   1     0.05  -0.19  -0.04     0.02  -0.09  -0.02     0.05  -0.15   0.01
    36   1    -0.05  -0.12  -0.04    -0.10   0.17  -0.03     0.06   0.11   0.00
    37   1    -0.17   0.10  -0.06     0.05  -0.01  -0.01     0.13   0.00  -0.04
    38   1     0.15   0.00   0.00    -0.04  -0.02   0.11    -0.02  -0.04   0.26
    39   1    -0.06  -0.14  -0.04    -0.03  -0.01  -0.03    -0.04  -0.05  -0.10
    40   1     0.01  -0.04  -0.06     0.01  -0.05   0.01     0.06  -0.09  -0.03
    41   1     0.00  -0.01  -0.12    -0.03  -0.06   0.05     0.00  -0.11   0.07
    42   1     0.10  -0.11  -0.10    -0.02   0.08   0.10    -0.01   0.07   0.11
    43   1     0.07  -0.23  -0.10    -0.03   0.00   0.02     0.00   0.11   0.10
    44   1    -0.09   0.32   0.16     0.02  -0.07  -0.03     0.08  -0.09  -0.05
    45   6     0.03  -0.14  -0.07     0.06   0.10  -0.15    -0.04  -0.12   0.02
    46   1     0.09  -0.20  -0.06     0.00   0.07  -0.06     0.03  -0.12  -0.05
    47   1    -0.02  -0.16  -0.11     0.22   0.03  -0.32    -0.14  -0.09   0.11
    48   1    -0.01  -0.13  -0.08     0.02   0.33  -0.17    -0.06  -0.26   0.02
                     7                      8                      9
                     A                      A                      A
 Frequencies --   106.4031               114.1331               124.0644
 Red. masses --     5.6225                 3.6420                 5.8386
 Frc consts  --     0.0375                 0.0280                 0.0529
 IR Inten    --     4.6093                 2.2848                 1.6730
  Atom  AN      X      Y      Z        X      Y      Z        X      Y      Z
     1   8    -0.03  -0.05  -0.01     0.01   0.04  -0.01    -0.08   0.05   0.07
     2   8     0.04  -0.19  -0.05     0.00  -0.10   0.00     0.06  -0.04   0.07
     3   8    -0.09   0.25   0.09    -0.09   0.06   0.07     0.14  -0.04  -0.06
     4   8     0.03  -0.04  -0.06     0.01  -0.10   0.07     0.05   0.07  -0.09
     5   8     0.01  -0.06  -0.05    -0.04   0.09   0.05    -0.08   0.09   0.00
     6   8     0.17   0.12   0.10    -0.05  -0.09   0.09     0.12  -0.04   0.26
     7   6     0.01  -0.07  -0.03    -0.03   0.03   0.03    -0.06   0.07   0.04
     8   6     0.04  -0.05  -0.03     0.00   0.00   0.01     0.02   0.04   0.02
     9   6    -0.05   0.09  -0.04    -0.04   0.03   0.04     0.04   0.02   0.00
    10   6    -0.03   0.00  -0.04    -0.02  -0.02   0.05     0.00   0.07  -0.05
    11   6    -0.02  -0.02  -0.05     0.00   0.02   0.06    -0.03   0.07  -0.03
    12   6     0.00   0.06   0.01    -0.01  -0.05   0.03     0.01  -0.01   0.00
    13   8     0.01   0.01  -0.03    -0.02  -0.01   0.00     0.00  -0.04  -0.10
    14   8     0.05  -0.11  -0.01    -0.04   0.03  -0.02    -0.03   0.17   0.04
    15   8    -0.07   0.10   0.10     0.01   0.00  -0.07     0.06  -0.19  -0.11
    16   8    -0.02   0.07   0.01     0.01  -0.01  -0.01    -0.05  -0.01  -0.06
    17   8     0.05  -0.03   0.06     0.10  -0.01   0.00     0.03  -0.07   0.05
    18   6    -0.01   0.02   0.01     0.00   0.00  -0.01    -0.01  -0.01  -0.05
    19   6     0.01  -0.01  -0.02    -0.01   0.01  -0.02    -0.02   0.02   0.02
    20   6    -0.01   0.04   0.05     0.01   0.01  -0.04    -0.04  -0.07  -0.02
    21   6    -0.03  -0.01   0.03     0.02   0.02  -0.03    -0.05   0.03   0.00
    22   6    -0.05   0.03   0.01     0.03   0.01  -0.02    -0.05   0.02  -0.01
    23   6    -0.06   0.02   0.01     0.06   0.00  -0.01    -0.09   0.00  -0.03
    24   1     0.07  -0.07  -0.01     0.03  -0.08   0.01     0.11  -0.08   0.05
    25   1    -0.04   0.31   0.00    -0.01   0.03   0.02     0.12  -0.04  -0.04
    26   1     0.30   0.05   0.02    -0.07  -0.10   0.13     0.25  -0.12   0.19
    27   1     0.02  -0.06  -0.02    -0.07   0.01   0.06    -0.07   0.06   0.07
    28   1     0.16  -0.02   0.00     0.05   0.03  -0.02     0.04   0.06  -0.05
    29   1    -0.09   0.12  -0.19    -0.04   0.04  -0.01     0.03  -0.01   0.08
    30   1    -0.09  -0.03  -0.03    -0.07  -0.05   0.04    -0.01   0.08  -0.09
    31   1    -0.07  -0.03  -0.07     0.06   0.03   0.09     0.01   0.10  -0.05
    32   1    -0.10   0.16   0.04     0.01  -0.02  -0.04    -0.07   0.11  -0.04
    33   1     0.00  -0.01  -0.04    -0.03  -0.11   0.00     0.06  -0.18  -0.13
    34   1     0.09  -0.10  -0.06    -0.05   0.02   0.00    -0.06   0.13   0.07
    35   1    -0.03   0.09   0.05    -0.01   0.03  -0.02    -0.01  -0.18  -0.01
    36   1     0.07  -0.11   0.02     0.08  -0.06   0.02     0.05  -0.16   0.01
    37   1    -0.02  -0.01   0.05     0.00   0.00  -0.02     0.04   0.00  -0.03
    38   1     0.01   0.02  -0.09    -0.01   0.00   0.00    -0.03  -0.02   0.12
    39   1     0.06   0.06   0.05    -0.01   0.00  -0.04    -0.16  -0.12   0.00
    40   1     0.00  -0.02   0.06     0.01   0.03  -0.04    -0.06   0.05  -0.05
    41   1    -0.08   0.03   0.00     0.04   0.01  -0.02    -0.02   0.02  -0.01
    42   1    -0.14  -0.06  -0.04     0.06  -0.01  -0.03    -0.19  -0.10  -0.09
    43   1    -0.10   0.13   0.01     0.05   0.01   0.01    -0.13   0.12  -0.05
    44   1     0.00   0.02  -0.02    -0.01  -0.02   0.00     0.04  -0.07  -0.15
    45   6    -0.02  -0.19  -0.06     0.09   0.10  -0.26    -0.01  -0.10   0.01
    46   1     0.04  -0.27  -0.02     0.08   0.02  -0.17     0.02  -0.17   0.05
    47   1    -0.14  -0.20  -0.10     0.30   0.00  -0.52    -0.18  -0.10   0.03
    48   1    -0.01  -0.19  -0.06    -0.04   0.41  -0.32     0.05  -0.17   0.04
                    10                     11                     12
                     A                      A                      A
 Frequencies --   145.7714               148.5546               169.4758
 Red. masses --     6.5579                 5.6400                 1.1969
 Frc consts  --     0.0821                 0.0733                 0.0203
 IR Inten    --     0.7487                 1.2929                 0.8576
  Atom  AN      X      Y      Z        X      Y      Z        X      Y      Z
     1   8     0.00  -0.08   0.00    -0.04  -0.01  -0.01     0.00   0.00   0.00
     2   8    -0.03   0.05   0.05    -0.03   0.17   0.13     0.00   0.01   0.00
     3   8     0.10  -0.07  -0.06    -0.05  -0.03   0.01     0.03   0.02  -0.02
     4   8    -0.01   0.06  -0.09    -0.03  -0.01   0.01    -0.02  -0.03   0.04
     5   8    -0.08   0.03  -0.01     0.00  -0.11   0.01     0.00   0.01  -0.01
     6   8    -0.01  -0.05   0.19     0.03   0.05  -0.05    -0.01  -0.01  -0.02
     7   6    -0.06  -0.02   0.00    -0.03  -0.02  -0.01     0.00   0.00   0.00
     8   6    -0.04   0.01   0.02    -0.06   0.03   0.04     0.00   0.00  -0.01
     9   6    -0.01   0.00   0.00     0.00  -0.02   0.00     0.00   0.01  -0.02
    10   6    -0.06   0.06  -0.05     0.00  -0.05   0.01     0.00   0.01  -0.02
    11   6    -0.09   0.06  -0.03    -0.02  -0.08   0.00     0.01   0.02  -0.02
    12   6    -0.06  -0.01  -0.01    -0.04   0.00   0.00     0.00   0.00  -0.04
    13   8     0.00   0.16   0.16    -0.03  -0.03  -0.06     0.01   0.00   0.00
    14   8     0.02  -0.07  -0.01    -0.04   0.02  -0.04     0.01   0.00   0.01
    15   8    -0.08   0.15   0.12    -0.03   0.04  -0.03     0.00  -0.01   0.02
    16   8     0.03  -0.16  -0.03    -0.02   0.04  -0.02     0.00  -0.01   0.00
    17   8     0.17   0.18  -0.16     0.41  -0.11   0.10     0.01   0.00   0.01
    18   6     0.00  -0.01  -0.01    -0.02   0.01  -0.02     0.00   0.00   0.00
    19   6     0.03  -0.05   0.00    -0.03   0.02  -0.04     0.00   0.00   0.01
    20   6     0.05   0.00   0.00    -0.01   0.03  -0.04     0.00  -0.01   0.01
    21   6     0.02  -0.10  -0.05    -0.01   0.02  -0.04     0.00  -0.01   0.00
    22   6     0.05  -0.13  -0.05    -0.01   0.03  -0.04     0.00  -0.01   0.00
    23   6     0.10   0.02   0.01     0.05   0.00  -0.01    -0.01   0.00   0.01
    24   1    -0.03   0.00   0.03     0.00   0.19   0.14     0.00   0.01   0.00
    25   1     0.08  -0.07  -0.05    -0.09  -0.03   0.05     0.09   0.02  -0.07
    26   1     0.05  -0.12   0.19     0.06   0.04  -0.07    -0.01  -0.02  -0.01
    27   1    -0.11  -0.04  -0.01     0.02   0.01  -0.05    -0.01   0.00  -0.01
    28   1    -0.06   0.00   0.04    -0.16  -0.02   0.08    -0.01   0.00  -0.01
    29   1    -0.02  -0.03   0.08     0.05   0.00   0.00     0.00   0.01  -0.03
    30   1    -0.06   0.07  -0.09     0.02  -0.05   0.04     0.00   0.02  -0.03
    31   1    -0.08   0.07  -0.06    -0.06  -0.10   0.00     0.01   0.02  -0.03
    32   1    -0.10   0.08  -0.06    -0.07   0.02   0.01     0.00   0.01  -0.07
    33   1    -0.03  -0.14  -0.11    -0.07   0.02   0.02    -0.02  -0.02  -0.05
    34   1     0.06   0.01   0.01    -0.06   0.00  -0.04     0.01   0.00   0.01
    35   1    -0.04   0.19   0.09    -0.01   0.03  -0.05     0.00  -0.01   0.01
    36   1     0.09   0.13  -0.05     0.43  -0.37   0.04     0.01  -0.01   0.00
    37   1    -0.09   0.05  -0.16    -0.01  -0.01   0.01     0.00   0.00   0.00
    38   1     0.04  -0.04  -0.01    -0.03   0.02  -0.04     0.00   0.00   0.01
    39   1     0.19   0.08  -0.04     0.00   0.04  -0.05     0.00   0.00   0.01
    40   1    -0.04  -0.13  -0.04    -0.01   0.01  -0.04    -0.01  -0.01   0.00
    41   1     0.05  -0.16   0.00    -0.03   0.04  -0.07    -0.01  -0.01   0.01
    42   1     0.11   0.08   0.11    -0.11  -0.19  -0.18    -0.02  -0.01   0.00
    43   1     0.09   0.02   0.11    -0.05   0.25   0.07    -0.02   0.02   0.01
    44   1    -0.07   0.24   0.17    -0.01  -0.05  -0.06     0.00   0.01   0.00
    45   6    -0.06  -0.07  -0.06    -0.02   0.02   0.07    -0.02  -0.01   0.06
    46   1     0.00  -0.12  -0.06    -0.06   0.06   0.05    -0.16  -0.31   0.51
    47   1    -0.17  -0.07  -0.04    -0.01   0.04   0.13    -0.08  -0.22  -0.45
    48   1    -0.04  -0.13  -0.05     0.01  -0.03   0.09     0.19   0.51   0.13
                    13                     14                     15
                     A                      A                      A
 Frequencies --   179.5542               186.4444               202.8734
 Red. masses --     5.7171                 4.4780                 4.8655
 Frc consts  --     0.1086                 0.0917                 0.1180
 IR Inten    --     1.1000                 0.5078                 8.4753
  Atom  AN      X      Y      Z        X      Y      Z        X      Y      Z
     1   8     0.05  -0.04  -0.06    -0.01  -0.03   0.01    -0.12   0.14   0.12
     2   8    -0.10   0.09  -0.13     0.00  -0.03   0.14    -0.03  -0.09   0.00
     3   8    -0.04  -0.08  -0.11     0.14   0.06   0.08    -0.11  -0.01  -0.02
     4   8    -0.08   0.04  -0.07    -0.01   0.02  -0.03    -0.08  -0.03  -0.03
     5   8     0.00   0.01  -0.06    -0.03  -0.12   0.04    -0.08   0.02  -0.02
     6   8    -0.08  -0.04   0.09    -0.01   0.02   0.04     0.16   0.05  -0.11
     7   6     0.01  -0.01  -0.07    -0.02  -0.10   0.06    -0.06   0.10   0.05
     8   6    -0.05   0.02  -0.05    -0.01  -0.09   0.10    -0.05   0.01  -0.02
     9   6    -0.08   0.01  -0.03     0.02  -0.03   0.03    -0.05  -0.02  -0.03
    10   6    -0.11   0.07  -0.05    -0.01   0.00  -0.01    -0.04  -0.06  -0.04
    11   6    -0.08   0.07  -0.05    -0.06  -0.04  -0.01     0.01  -0.07  -0.07
    12   6    -0.04   0.02  -0.01    -0.09  -0.01  -0.04    -0.01  -0.04  -0.11
    13   8     0.08  -0.12  -0.01    -0.03  -0.07  -0.03     0.04   0.02   0.07
    14   8     0.05   0.00   0.04    -0.09   0.01  -0.07     0.04  -0.02   0.04
    15   8     0.09  -0.02   0.03     0.03   0.09  -0.14     0.09  -0.03  -0.05
    16   8     0.06   0.15   0.14     0.03   0.10   0.04    -0.01  -0.14  -0.01
    17   8     0.02  -0.09   0.15    -0.10   0.01  -0.07     0.01   0.02   0.01
    18   6     0.08   0.01   0.11    -0.01   0.02   0.02     0.04  -0.03   0.02
    19   6     0.06   0.03   0.05    -0.02   0.03  -0.04     0.03   0.00   0.04
    20   6     0.06   0.02   0.02     0.04   0.07  -0.06     0.03   0.03   0.04
    21   6     0.06   0.00   0.02     0.07   0.06  -0.03    -0.03   0.14   0.04
    22   6     0.03   0.06   0.08     0.06   0.08  -0.03     0.07   0.02   0.03
    23   6     0.12  -0.03   0.09     0.15  -0.02  -0.04     0.17  -0.02   0.05
    24   1    -0.18   0.04  -0.13     0.01  -0.03   0.14     0.03  -0.01   0.02
    25   1    -0.08  -0.11  -0.05     0.21   0.13  -0.04    -0.14  -0.02   0.01
    26   1    -0.10  -0.06   0.14     0.03  -0.06   0.07     0.30   0.01  -0.23
    27   1    -0.01  -0.02  -0.09     0.01  -0.09   0.09     0.02   0.13   0.09
    28   1    -0.07   0.00   0.00    -0.03  -0.11   0.14    -0.03   0.05  -0.12
    29   1    -0.11  -0.03   0.04    -0.01  -0.03   0.00    -0.01   0.01  -0.04
    30   1    -0.12   0.08  -0.08     0.00   0.00  -0.01    -0.03  -0.08   0.01
    31   1    -0.11   0.07  -0.10    -0.11  -0.05  -0.03     0.09  -0.04  -0.04
    32   1    -0.04   0.03  -0.03    -0.13   0.08  -0.09    -0.07   0.06  -0.14
    33   1     0.00  -0.04  -0.06    -0.15  -0.09  -0.08    -0.09  -0.10  -0.11
    34   1     0.03  -0.04   0.03    -0.14  -0.05  -0.04     0.05  -0.01   0.03
    35   1     0.08  -0.05   0.02     0.02   0.12  -0.11     0.04   0.00   0.03
    36   1     0.06  -0.01   0.10    -0.17   0.12   0.04    -0.02   0.09   0.07
    37   1     0.13  -0.05   0.24     0.02  -0.02   0.09     0.05   0.02  -0.06
    38   1     0.08   0.04   0.04    -0.01   0.04  -0.05     0.02   0.00   0.02
    39   1     0.03   0.02   0.01     0.03   0.06  -0.06    -0.02  -0.03   0.11
    40   1     0.11   0.00   0.05     0.10   0.06  -0.01    -0.08   0.15  -0.02
    41   1    -0.05   0.07   0.03     0.05   0.11  -0.08     0.21   0.04   0.06
    42   1     0.24   0.02   0.02     0.37   0.15  -0.02     0.36   0.12   0.07
    43   1     0.16  -0.16   0.11     0.24  -0.28  -0.03     0.24  -0.24   0.11
    44   1     0.11  -0.17   0.04     0.00  -0.12   0.00     0.03   0.04   0.03
    45   6    -0.11  -0.06  -0.13    -0.03  -0.04   0.02    -0.07   0.01   0.02
    46   1    -0.04  -0.13  -0.12    -0.04  -0.11   0.11    -0.10   0.06   0.00
    47   1    -0.18  -0.08  -0.18    -0.09  -0.07  -0.05    -0.05   0.03   0.07
    48   1    -0.15  -0.05  -0.14     0.03   0.02   0.05    -0.05  -0.03   0.03
                    16                     17                     18
                     A                      A                      A
 Frequencies --   237.5160               246.7513               261.3055
 Red. masses --     2.9154                 4.1665                 4.6207
 Frc consts  --     0.0969                 0.1495                 0.1859
 IR Inten    --    27.4832                10.7828                 5.9492
  Atom  AN      X      Y      Z        X      Y      Z        X      Y      Z
     1   8    -0.03   0.02   0.03    -0.01   0.08   0.02     0.04  -0.06  -0.03
     2   8     0.05  -0.04   0.01    -0.07   0.00  -0.11     0.03   0.05   0.06
     3   8    -0.14  -0.11   0.01     0.17   0.03   0.02    -0.09   0.01   0.02
     4   8     0.10   0.16  -0.12    -0.05   0.01   0.07     0.00  -0.02  -0.09
     5   8     0.05  -0.12   0.00     0.11  -0.16   0.00    -0.07   0.09  -0.04
     6   8    -0.05   0.01   0.01    -0.05   0.00   0.00    -0.02   0.00   0.04
     7   6     0.03   0.00  -0.01     0.08  -0.01  -0.01    -0.01  -0.05   0.00
     8   6     0.03   0.04   0.00    -0.01  -0.01   0.02     0.01  -0.06  -0.01
     9   6     0.01   0.02   0.06    -0.04   0.02   0.05     0.02  -0.06  -0.05
    10   6     0.02   0.05   0.05    -0.06   0.06   0.03     0.02  -0.08  -0.06
    11   6    -0.03  -0.04   0.01    -0.01   0.00  -0.01    -0.03  -0.01   0.00
    12   6    -0.01   0.01   0.06     0.01   0.02   0.04    -0.04   0.00   0.00
    13   8    -0.01   0.01   0.00    -0.04   0.04   0.06     0.05   0.05   0.09
    14   8    -0.01  -0.01  -0.01     0.04  -0.01  -0.01     0.02   0.05  -0.03
    15   8     0.01   0.01  -0.02     0.02   0.02  -0.10    -0.02   0.12  -0.17
    16   8    -0.01  -0.03  -0.02     0.00  -0.15  -0.09     0.08  -0.09  -0.04
    17   8    -0.02   0.01  -0.01     0.02  -0.03   0.10    -0.11  -0.06   0.20
    18   6    -0.01   0.00  -0.01     0.00  -0.02  -0.06     0.06  -0.05  -0.03
    19   6    -0.01   0.00   0.00    -0.02   0.01  -0.02     0.04  -0.05  -0.03
    20   6     0.00   0.02   0.00    -0.02   0.05   0.02     0.07   0.01  -0.05
    21   6    -0.01   0.04   0.01    -0.01   0.11   0.04     0.08  -0.01  -0.01
    22   6     0.01   0.01  -0.01     0.05   0.03   0.03     0.06   0.01   0.07
    23   6     0.02   0.00  -0.01    -0.06   0.05   0.01    -0.11   0.07   0.06
    24   1     0.11   0.05   0.03    -0.23  -0.16  -0.15     0.08   0.23   0.12
    25   1    -0.50  -0.08   0.33     0.37   0.02  -0.16    -0.21   0.07   0.09
    26   1    -0.10   0.02   0.05    -0.13   0.00   0.09     0.01  -0.02   0.03
    27   1     0.10   0.05  -0.05     0.20   0.05  -0.02    -0.09  -0.10   0.06
    28   1     0.08   0.06   0.00     0.01  -0.01   0.06    -0.06  -0.09   0.02
    29   1     0.01   0.00   0.11    -0.09  -0.02   0.09     0.04  -0.02  -0.12
    30   1     0.03   0.04   0.09    -0.08   0.05   0.04     0.05  -0.06  -0.08
    31   1    -0.11  -0.06  -0.04    -0.12  -0.02  -0.12     0.01  -0.02   0.09
    32   1    -0.01  -0.05   0.12     0.03  -0.04   0.08    -0.06   0.03  -0.01
    33   1     0.03   0.07   0.09     0.06   0.07   0.06    -0.05  -0.03  -0.02
    34   1    -0.01  -0.01  -0.01     0.07   0.03  -0.03     0.00   0.08   0.02
    35   1     0.03  -0.02  -0.06     0.05   0.00  -0.15     0.02   0.27  -0.12
    36   1    -0.02   0.03   0.00     0.08  -0.06  -0.01    -0.04  -0.05   0.10
    37   1     0.00   0.01  -0.03     0.01   0.03  -0.17     0.00  -0.03  -0.10
    38   1    -0.02   0.01  -0.01    -0.06   0.01  -0.05     0.01  -0.08   0.02
    39   1    -0.01   0.00   0.02    -0.06   0.00   0.08     0.13   0.01  -0.02
    40   1    -0.01   0.04   0.00     0.00   0.11   0.05     0.13   0.01  -0.01
    41   1     0.05   0.02   0.00     0.20   0.02   0.11     0.09  -0.06   0.18
    42   1     0.04   0.02   0.00    -0.20  -0.07   0.00    -0.31  -0.07   0.07
    43   1     0.03  -0.03  -0.01    -0.10   0.20  -0.07    -0.15   0.25  -0.10
    44   1     0.00   0.01  -0.02    -0.05   0.06   0.06    -0.05   0.13   0.22
    45   6     0.04  -0.03  -0.04    -0.07  -0.04  -0.08     0.01   0.03   0.04
    46   1     0.03  -0.29   0.24     0.04  -0.07  -0.14    -0.09   0.06   0.09
    47   1    -0.17  -0.15  -0.31    -0.07  -0.04  -0.09     0.01   0.04   0.05
    48   1     0.20   0.19   0.02    -0.18  -0.06  -0.12     0.11   0.05   0.08
                    19                     20                     21
                     A                      A                      A
 Frequencies --   269.6595               272.4205               275.0073
 Red. masses --     3.0010                 3.3648                 2.7714
 Frc consts  --     0.1286                 0.1471                 0.1235
 IR Inten    --     9.4381                 9.7352                 1.2957
  Atom  AN      X      Y      Z        X      Y      Z        X      Y      Z
     1   8    -0.06   0.00   0.01     0.02   0.01  -0.04     0.00   0.03  -0.05
     2   8     0.01   0.05  -0.03     0.03   0.01   0.02     0.05   0.00   0.01
     3   8     0.04   0.08   0.03    -0.04   0.01  -0.01    -0.05   0.01  -0.05
     4   8     0.00  -0.04  -0.09     0.02  -0.02   0.01     0.04  -0.06   0.09
     5   8    -0.01   0.01  -0.07     0.00  -0.01   0.01     0.05  -0.07   0.03
     6   8    -0.10  -0.01   0.08    -0.04   0.01   0.04    -0.08   0.01   0.08
     7   6     0.01  -0.03  -0.03     0.00  -0.01  -0.01     0.01   0.00  -0.03
     8   6     0.02  -0.05  -0.04     0.01  -0.02  -0.02     0.02   0.01  -0.04
     9   6     0.04  -0.05  -0.06     0.02  -0.01  -0.03     0.02   0.02  -0.05
    10   6     0.02  -0.09  -0.07     0.03  -0.01  -0.01     0.06   0.02   0.00
    11   6    -0.04  -0.03   0.00    -0.01   0.01   0.00    -0.01   0.03   0.01
    12   6     0.03   0.03   0.16    -0.07   0.02  -0.05    -0.12   0.05  -0.11
    13   8     0.03   0.04  -0.06    -0.19  -0.10   0.08     0.06   0.06  -0.04
    14   8     0.05  -0.02   0.05     0.25   0.00   0.05    -0.05  -0.02  -0.03
    15   8    -0.02  -0.02  -0.02    -0.01  -0.05  -0.03     0.02  -0.02   0.05
    16   8    -0.07  -0.03  -0.02     0.04   0.02   0.00    -0.05  -0.07  -0.04
    17   8     0.02   0.01   0.01     0.01   0.01  -0.04    -0.03   0.00   0.07
    18   6    -0.03   0.00  -0.01    -0.03   0.03  -0.03     0.01   0.00  -0.02
    19   6    -0.02  -0.01   0.03    -0.03   0.07  -0.03     0.00   0.01   0.00
    20   6    -0.03   0.00   0.03    -0.08   0.03   0.02    -0.01   0.02   0.00
    21   6    -0.04   0.04   0.02    -0.02   0.03   0.02    -0.03   0.03  -0.01
    22   6    -0.03   0.02   0.00     0.02   0.01  -0.01    -0.02   0.01   0.02
    23   6     0.11  -0.02   0.04     0.01   0.00  -0.02     0.05   0.00   0.05
    24   1    -0.01   0.14   0.00     0.06   0.08   0.04     0.11   0.07   0.03
    25   1     0.14   0.12  -0.09    -0.07   0.02   0.01    -0.03  -0.03  -0.04
    26   1    -0.15   0.14  -0.03    -0.06  -0.10   0.18    -0.16  -0.22   0.42
    27   1     0.02  -0.03   0.02     0.00  -0.02   0.00     0.05   0.02  -0.06
    28   1    -0.04  -0.08  -0.03    -0.01  -0.02  -0.02     0.02   0.01  -0.05
    29   1     0.05  -0.01  -0.15     0.02   0.00  -0.06     0.02   0.02  -0.07
    30   1     0.04  -0.07  -0.10     0.04   0.00  -0.04     0.05   0.03  -0.03
    31   1    -0.08  -0.07   0.09    -0.04  -0.01   0.02    -0.09   0.00   0.00
[...]
 ! A85   A(4,45,47)              0.0522                  2.4                    !
 ! A86   A(4,45,48)             -0.0465                  2.1                    !
 ! A87   A(46,45,47)             0.0321                  1.5                    !
 ! A88   A(46,45,48)            -0.0387                  1.8                    !
 ! D13   D(45,4,10,9)           -0.0389                  1.8                    !
 ! D14   D(45,4,10,11)          -0.0369                  1.7                    !
 ! D15   D(45,4,10,30)          -0.037                   1.7                    !
 ! D16   D(10,4,45,46)          -0.0324                  1.5                    !
 ! D17   D(10,4,45,47)           0.0365                  1.7                    !
 ! D18   D(10,4,45,48)           0.041                   1.9                    !
 --------------------------------------------------------------------------------
                           ----------------------------
                           ! Normal Mode   129        !
 --------------------------                            --------------------------
 ! Name  Definition              Value          Relative Weight (%)             !
 --------------------------------------------------------------------------------
 ! R45   R(22,41)                0.0306                  1.2                    !
 ! R46   R(23,42)                0.7984                 31.8                    !
 ! R47   R(23,43)               -0.7621                 30.4                    !
 ! A47   A(23,17,36)             0.0411                  1.6                    !
 ! A73   A(16,22,23)            -0.0306                  1.2                    !
 ! A75   A(21,22,23)             0.0216                  0.9                    !
 ! A79   A(17,23,42)            -0.0474                  1.9                    !
 ! A80   A(17,23,43)             0.049                   2.0                    !
 ! A81   A(22,23,42)            -0.0343                  1.4                    !
 ! A82   A(22,23,43)             0.0341                  1.4                    !
 ! D88   D(36,17,23,22)          0.0458                  1.8                    !
 ! D89   D(36,17,23,42)         -0.0323                  1.3                    !
 ! D90   D(36,17,23,43)         -0.0316                  1.3                    !
 ! D119  D(1,21,22,23)           0.0256                  1.0                    !
 ! D122  D(20,21,22,23)          0.0254                  1.0                    !
 ! D125  D(40,21,22,23)          0.0257                  1.0                    !
 ! D127  D(16,22,23,17)         -0.0559                  2.2                    !
 ! D128  D(16,22,23,42)          0.0284                  1.1                    !
 ! D129  D(16,22,23,43)          0.0296                  1.2                    !
 ! D130  D(21,22,23,17)         -0.0621                  2.5                    !
 ! D131  D(21,22,23,42)          0.0222                  0.9                    !
 ! D132  D(21,22,23,43)          0.0234                  0.9                    !
 ! D133  D(41,22,23,17)         -0.0449                  1.8                    !
 ! D134  D(41,22,23,42)          0.0394                  1.6                    !
 ! D135  D(41,22,23,43)          0.0406                  1.6                    !
 --------------------------------------------------------------------------------
                           ----------------------------
                           ! Normal Mode   130        !
 --------------------------                            --------------------------
 ! Name  Definition              Value          Relative Weight (%)             !
 --------------------------------------------------------------------------------
 ! R13   R(6,26)                 0.0151                  0.6                    !
 ! R22   R(11,12)               -0.0182                  0.8                    !
 ! R23   R(11,31)                0.016                   0.7                    !
 ! R24   R(12,32)                1.026                  43.9                    !
 ! R25   R(12,33)               -0.3812                 16.3                    !
 ! R48   R(45,46)                0.0222                  0.9                    !
 ! R49   R(45,47)               -0.0193                  0.8                    !
 ! A6    A(12,6,26)             -0.0385                  1.6                    !
 ! A32   A(5,11,12)             -0.0293                  1.3                    !
 ! A34   A(10,11,12)             0.0208                  0.9                    !
 ! A37   A(6,12,11)              0.0164                  0.7                    !
 ! A38   A(6,12,32)             -0.046                   2.0                    !
 ! A39   A(6,12,33)              0.0411                  1.8                    !
 ! A40   A(11,12,32)            -0.0305                  1.3                    !
 ! A41   A(11,12,33)             0.0326                  1.4                    !
 ! A42   A(32,12,33)            -0.0175                  0.7                    !
 ! D25   D(26,6,12,11)           0.0477                  2.0                    !
 ! D27   D(26,6,12,33)          -0.0361                  1.5                    !
 ! D56   D(4,10,11,12)           0.0241                  1.0                    !
 ! D59   D(9,10,11,12)           0.0241                  1.0                    !
 ! D62   D(30,10,11,12)          0.0243                  1.0                    !
 ! D64   D(5,11,12,6)           -0.0499                  2.1                    !
 ! D65   D(5,11,12,32)           0.0173                  0.7                    !
 ! D66   D(5,11,12,33)           0.037                   1.6                    !
 ! D67   D(10,11,12,6)          -0.057                   2.4                    !
 ! D69   D(10,11,12,33)          0.0299                  1.3                    !
 ! D70   D(31,11,12,6)          -0.0392                  1.7                    !
 ! D71   D(31,11,12,32)          0.028                   1.2                    !
 ! D72   D(31,11,12,33)          0.0476                  2.0                    !
 --------------------------------------------------------------------------------
                           ----------------------------
                           ! Normal Mode   131        !
 --------------------------                            --------------------------
 ! Name  Definition              Value          Relative Weight (%)             !
 --------------------------------------------------------------------------------
 ! R48   R(45,46)                1.0155                 50.1                    !
 ! R49   R(45,47)               -0.2307                 11.4                    !
 ! R50   R(45,48)               -0.3535                 17.4                    !
 ! A4    A(10,4,45)             -0.0349                  1.7                    !
 ! A84   A(4,45,46)             -0.046                   2.3                    !
 ! A85   A(4,45,47)              0.0262                  1.3                    !
 ! A86   A(4,45,48)              0.0355                  1.8                    !
 ! A87   A(46,45,47)            -0.0305                  1.5                    !
 ! A89   A(47,45,48)             0.0362                  1.8                    !
 ! D17   D(10,4,45,47)          -0.0457                  2.3                    !
 ! D18   D(10,4,45,48)           0.0423                  2.1                    !
 --------------------------------------------------------------------------------
                           ----------------------------
                           ! Normal Mode   132        !
 --------------------------                            --------------------------
 ! Name  Definition              Value          Relative Weight (%)             !
 --------------------------------------------------------------------------------
 ! R4    R(2,24)                -0.0115                  0.6                    !
 ! R5    R(2,36)                 0.3592                 17.3                    !
 ! R30   R(15,20)               -0.0195                  0.9                    !
 ! R31   R(15,35)                0.9828                 47.2                    !
 ! R34   R(17,23)                0.0074                  0.4                    !
 ! R35   R(17,36)               -0.398                  19.1                    !
 ! R47   R(23,43)                0.0068                  0.3                    !
 ! A45   A(20,15,35)            -0.0103                  0.5                    !
 ! A60   A(15,20,19)            -0.0203                  1.0                    !
 ! A61   A(15,20,21)             0.0104                  0.5                    !
 ! A62   A(15,20,39)             0.007                   0.3                    !
 ! A80   A(17,23,43)             0.0074                  0.4                    !
 ! D80   D(35,15,20,21)          0.0111                  0.5                    !
 ! D109  D(15,20,21,1)          -0.0186                  0.9                    !
 ! D110  D(15,20,21,22)         -0.0184                  0.9                    !
 ! D111  D(15,20,21,40)         -0.0175                  0.8                    !
 ! D127  D(16,22,23,17)         -0.0084                  0.4                    !
 ! D130  D(21,22,23,17)         -0.0085                  0.4                    !
 ! D133  D(41,22,23,17)         -0.0087                  0.4                    !
 --------------------------------------------------------------------------------
                           ----------------------------
                           ! Normal Mode   133        !
 --------------------------                            --------------------------
 ! Name  Definition              Value          Relative Weight (%)             !
 --------------------------------------------------------------------------------
 ! R4    R(2,24)                 0.0439                  1.6                    !
 ! R5    R(2,36)                -0.8866                 33.3                    !
 ! R31   R(15,35)                0.3982                 15.0                    !
 ! R34   R(17,23)               -0.0186                  0.7                    !
 ! R35   R(17,36)                0.9818                 36.9                    !
 ! R47   R(23,43)               -0.0172                  0.6                    !
 ! A80   A(17,23,43)            -0.0177                  0.7                    !
 ! D127  D(16,22,23,17)          0.0211                  0.8                    !
 ! D130  D(21,22,23,17)          0.0215                  0.8                    !
 ! D133  D(41,22,23,17)          0.0213                  0.8                    !
 --------------------------------------------------------------------------------
                           ----------------------------
                           ! Normal Mode   134        !
 --------------------------                            --------------------------
 ! Name  Definition              Value          Relative Weight (%)             !
 --------------------------------------------------------------------------------
 ! R3    R(2,8)                 -0.0212                  1.6                    !
 ! R4    R(2,24)                 1.0592                 79.6                    !
 ! R29   R(14,34)               -0.0118                  0.9                    !
 ! R35   R(17,36)               -0.0448                  3.4                    !
 ! A2    A(8,2,24)              -0.01                    0.8                    !
 ! A13   A(2,8,7)               -0.0211                  1.6                    !
 ! A14   A(2,8,9)                0.0142                  1.1                    !
 ! D37   D(2,8,9,3)              0.0172                  1.3                    !
 ! D38   D(2,8,9,10)             0.0172                  1.3                    !
 ! D39   D(2,8,9,29)             0.0163                  1.2                    !
 --------------------------------------------------------------------------------
                           ----------------------------
                           ! Normal Mode   135        !
 --------------------------                            --------------------------
 ! Name  Definition              Value          Relative Weight (%)             !
 --------------------------------------------------------------------------------
 ! R27   R(13,44)                0.0189                  1.5                    !
 ! R28   R(14,19)                0.021                   1.6                    !
 ! R29   R(14,34)               -1.0599                 82.9                    !
 ! A55   A(14,19,20)             0.0214                  1.7                    !
 ! D91   D(13,18,19,14)          0.0192                  1.5                    !
 ! D94   D(16,18,19,14)          0.0195                  1.5                    !
 ! D97   D(37,18,19,14)          0.0187                  1.5                    !
 --------------------------------------------------------------------------------
                           ----------------------------
                           ! Normal Mode   136        !
 --------------------------                            --------------------------
 ! Name  Definition              Value          Relative Weight (%)             !
 --------------------------------------------------------------------------------
 ! R6    R(3,9)                 -0.0213                  1.5                    !
 ! R7    R(3,25)                 1.0481                 72.7                    !
 ! R13   R(6,26)                -0.159                  11.0                    !
 ! A19   A(3,9,8)               -0.0211                  1.5                    !
 ! D46   D(3,9,10,4)            -0.0204                  1.4                    !
 ! D47   D(3,9,10,11)           -0.0205                  1.4                    !
 ! D48   D(3,9,10,30)           -0.0197                  1.4                    !
 --------------------------------------------------------------------------------
                           ----------------------------
                           ! Normal Mode   137        !
 --------------------------                            --------------------------
 ! Name  Definition              Value          Relative Weight (%)             !
 --------------------------------------------------------------------------------
 ! R7    R(3,25)                -0.159                  11.1                    !
 ! R12   R(6,12)                 0.0211                  1.5                    !
 ! R13   R(6,26)                -1.0482                 73.1                    !
 ! A38   A(6,12,32)              0.021                   1.5                    !
 ! D64   D(5,11,12,6)            0.0195                  1.4                    !
 ! D67   D(10,11,12,6)           0.0191                  1.3                    !
 ! D70   D(31,11,12,6)           0.0201                  1.4                    !
 --------------------------------------------------------------------------------
                           ----------------------------
                           ! Normal Mode   138        !
 --------------------------                            --------------------------
 ! Name  Definition              Value          Relative Weight (%)             !
 --------------------------------------------------------------------------------
 ! R26   R(13,18)                0.0232                  1.9                    !
 ! R27   R(13,44)               -1.0603                 85.2                    !
 ! R29   R(14,34)               -0.0189                  1.5                    !
 ! A49   A(13,18,19)             0.0209                  1.7                    !
 ! D82   D(22,16,18,13)         -0.0219                  1.8                    !
 --------------------------------------------------------------------------------
 -------------------------------------------------------------------
 Center     Atomic                   Forces (Hartrees/Bohr)
 Number     Number              X              Y              Z
 -------------------------------------------------------------------
      1        8          -0.000009487   -0.000004006    0.000002726
      2        8           0.000001675   -0.000010868   -0.000002494
      3        8           0.000005846   -0.000014339   -0.000004231
      4        8          -0.000008845   -0.000010246   -0.000004459
      5        8          -0.000006709    0.000002851    0.000002947
      6        8           0.000000014    0.000002920   -0.000005439
      7        6           0.000012914   -0.000000252   -0.000005785
      8        6           0.000003521   -0.000000071   -0.000005104
      9        6          -0.000000010   -0.000012047   -0.000006229
     10        6           0.000009662    0.000007735    0.000002995
     11        6           0.000010296   -0.000003796   -0.000004665
     12        6          -0.000011427    0.000008854    0.000005524
     13        8          -0.000005088    0.000007871    0.000006734
     14        8          -0.000005641    0.000015396    0.000004854
     15        8          -0.000003339    0.000007590    0.000003083
     16        8          -0.000000166   -0.000003742   -0.000001730
     17        8           0.000004234    0.000000033    0.000002778
     18        6          -0.000004936    0.000011371    0.000008436
     19        6          -0.000006524    0.000004550    0.000006129
     20        6          -0.000001009    0.000008529    0.000008960
     21        6           0.000009185    0.000001411   -0.000004646
     22        6          -0.000006296    0.000006959    0.000001094
     23        6           0.000002314   -0.000010953   -0.000006457
     24        1           0.000005527   -0.000013385   -0.000004565
     25        1           0.000003963   -0.000012796   -0.000004532
     26        1           0.000000605    0.000008328   -0.000007085
     27        1          -0.000002344   -0.000004408    0.000004493
     28        1           0.000003779   -0.000006225   -0.000007738
     29        1           0.000003346   -0.000009989    0.000002687
     30        1           0.000001870   -0.000004181   -0.000006096
     31        1          -0.000002023   -0.000000494    0.000005602
     32        1          -0.000000956    0.000004980    0.000000483
     33        1          -0.000001695    0.000007596    0.000002852
     34        1          -0.000007338    0.000014500    0.000008526
     35        1          -0.000007172    0.000007264    0.000003903
     36        1           0.000000717   -0.000011810    0.000005726
     37        1          -0.000003268    0.000008928   -0.000000826
     38        1          -0.000004981    0.000007749    0.000009274
     39        1          -0.000001766    0.000009196   -0.000002023
     40        1          -0.000001271   -0.000000252    0.000005540
     41        1           0.000001099    0.000001710   -0.000005093
     42        1           0.000003162   -0.000004620   -0.000004839
     43        1           0.000002977   -0.000007969    0.000000438
     44        1          -0.000003935    0.000008100    0.000006469
     45        6           0.000015744   -0.000008126   -0.000004866
     46        1           0.000000579   -0.000006132   -0.000002402
     47        1           0.000002972   -0.000004125   -0.000008139
     48        1           0.000000227    0.000000411   -0.000002808
 -------------------------------------------------------------------
 Cartesian Forces:  Max     0.000015744 RMS     0.000006428

 This type of calculation cannot be archived.


 PERICLES, SOPHOCLES,
 PELOPONESIAN WAR,
 FRENCH VERBS, LATIN VERBS
 H2SO4.
 Job cpu time:  0 days  0 hours  0 minutes  0.8 seconds.
 File lengths (MBytes):  RWF=     10 Int=      0 D2E=      0 Chk=     66 Scr=      1
 Normal termination of Gaussian 09 at Thu Jan 12 01:03:09 2012.
