 Entering Gaussian System, Link 0=g09
 Initial command:
 /opt/gaussian//g09/l1.exe /scratch/g09/Gau-32239.inp -scrdir=/scratch/g09/
 Entering Link 1 = /opt/gaussian//g09/l1.exe PID=     32240.
  
 Copyright (c) 1988,1990,1992,1993,1995,1998,2003,2009,2010,
            Gaussian, Inc.  All Rights Reserved.
  
 This is part of the Gaussian(R) 09 program.  It is based on
 the Gaussian(R) 03 system (copyright 2003, Gaussian, Inc.),
 the Gaussian(R) 98 system (copyright 1998, Gaussian, Inc.),
 the Gaussian(R) 94 system (copyright 1995, Gaussian, Inc.),
 the Gaussian 92(TM) system (copyright 1992, Gaussian, Inc.),
 the Gaussian 90(TM) system (copyright 1990, Gaussian, Inc.),
 the Gaussian 88(TM) system (copyright 1988, Gaussian, Inc.),
 the Gaussian 86(TM) system (copyright 1986, Carnegie Mellon
 University), and the Gaussian 82(TM) system (copyright 1983,
 Carnegie Mellon University). Gaussian is a federally registered
 trademark of Gaussian, Inc.
  
 This software contains proprietary and confidential information,
 including trade secrets, belonging to Gaussian, Inc.
  
 This software is provided under written license and may be
 used, copied, transmitted, or stored only in accord with that
 written license.
  
 The following legend is applicable only to US Government
 contracts under FAR:
  
                    RESTRICTED RIGHTS LEGEND
  
 Use, reproduction and disclosure by the US Government is
 subject to restrictions as set forth in subparagraphs (a)
 and (c) of the Commercial Computer Software - Restricted
 Rights clause in FAR 52.227-19.
  
 Gaussian, Inc.
 340 Quinnipiac St., Bldg. 40, Wallingford CT 06492
  
  
 ---------------------------------------------------------------
 Warning -- This program may not be used in any manner that
 competes with the business of Gaussian, Inc. or will provide
 assistance to any competitor of Gaussian, Inc.  The licensee
 of this program is prohibited from giving any competitor of
 Gaussian, Inc. access to this program.  By using this program,
 the user acknowledges that Gaussian, Inc. is engaged in the
 business of creating and licensing software in the field of
 computational chemistry and represents and warrants to the
 licensee that it is not a competitor of Gaussian, Inc. and that
 it will not use this program in any manner prohibited above.
 ---------------------------------------------------------------
  

 Cite this work as:
 Gaussian 09, Revision B.01,
 M. J. Frisch, G. W. Trucks, H. B. Schlegel, G. E. Scuseria, 
 M. A. Robb, J. R. Cheeseman, G. Scalmani, V. Barone, B. Mennucci, 
 G. A. Petersson, H. Nakatsuji, M. Caricato, X. Li, H. P. Hratchian, 
 A. F. Izmaylov, J. Bloino, G. Zheng, J. L. Sonnenberg, M. Hada, 
 M. Ehara, K. Toyota, R. Fukuda, J. Hasegawa, M. Ishida, T. Nakajima, 
 Y. Honda, O. Kitao, H. Nakai, T. Vreven, J. A. Montgomery, Jr., 
 J. E. Peralta, F. Ogliaro, M. Bearpark, J. J. Heyd, E. Brothers, 
 K. N. Kudin, V. N. Staroverov, T. Keith, R. Kobayashi, J. Normand, 
 K. Raghavachari, A. Rendell, J. C. Burant, S. S. Iyengar, J. Tomasi, 
 M. Cossi, N. Rega, J. M. Millam, M. Klene, J. E. Knox, J. B. Cross, 
 V. Bakken, C. Adamo, J. Jaramillo, R. Gomperts, R. E. Stratmann, 
 O. Yazyev, A. J. Austin, R. Cammi, C. Pomelli, J. W. Ochterski, 
 R. L. Martin, K. Morokuma, V. G. Zakrzewski, G. A. Voth, 
 P. Salvador, J. J. Dannenberg, S. Dapprich, A. D. Daniels, 
 O. Farkas, J. B. Foresman, J. V. Ortiz, J. Cioslowski, 
 and D. J. Fox, Gaussian, Inc., Wallingford CT, 2010.
 
 ******************************************
 Gaussian 09:  EM64L-G09RevB.01 12-Aug-2010
                 1-Jul-2011 
 ******************************************
 %chk=gaussian/cellobiose/init_THF+neg.chk
 %mem=15GB
 %nproc=8
 Will use up to    8 processors via shared memory.
 ----------------------------------------------------------------
 # opt freq=noraman b3lyp/6-31+g(2df,p) nosymm scrf=(solvent=thf)
 ----------------------------------------------------------------
 1/14=-1,18=20,19=15,26=3,38=1/1,3;
 2/9=110,12=2,15=1,17=6,18=5,40=1/2;
 3/5=1,6=6,7=114,11=2,16=1,25=1,30=1,70=2201,71=1,72=20,74=-5/1,2,3;
 4//1;
 5/5=2,38=5,53=20/2;
 6/7=2,8=2,9=2,10=2,28=1/1;
 7/30=1/1,2,3,16;
 1/14=-1,18=20,19=15/3(2);
 2/9=110,15=1/2;
 99//99;
 2/9=110,15=1/2;
 3/5=1,6=6,7=114,11=2,16=1,25=1,30=1,70=2205,71=1,72=20,74=-5/1,2,3;
 4/5=5,16=3/1;
 5/5=2,38=5,53=20/2;
 7/30=1/1,2,3,16;
 1/14=-1,18=20,19=15/3(-5);
 2/9=110,15=1/2;
 6/7=2,8=2,9=2,10=2,19=2,28=1/1;
 99/9=1/99;
 ------------------------------------------------
 init_THF+neg from init_THF+.log for dissociation
 ------------------------------------------------
 Symbolic Z-matrix:
 Charge = -1 Multiplicity = 1
 8                     0.14304   0.02104  -0.33857 
 8                    -3.66872   1.49172  -3.96838 
 8                    -0.93713   1.84605  -4.67683 
 8                     0.7615    2.06058  -2.39997 
 8                    -3.06096   0.56427  -1.96557 
 8                    -2.69566   0.38641   1.10645 
 6                    -2.65477   0.8175   -3.30362 
 6                    -1.40601   1.71068  -3.34295 
 6                    -0.28987   1.11012  -2.491 
 6                    -0.83558   0.73122  -1.10625 
 6                    -2.07378  -0.16564  -1.23535 
 6                    -2.65848  -0.62088   0.10597 
 1                    -1.65282   2.23093  -5.19813 
 1                     1.45818   1.68939  -1.83503 
 1                    -1.88238   0.31254   1.63123 
 1                    -2.44334  -0.1473   -3.80154 
 1                    -1.68066   2.69129  -2.92879 
 1                     0.07377   0.19514  -2.98356 
 1                    -1.12545   1.64156  -0.56985 
 1                    -1.81059  -1.07589  -1.79954 
 1                    -2.08414  -1.48486   0.45638 
 1                    -3.68695  -0.94897  -0.07847 
 6                    -4.80419   0.69165  -4.30163 
 1                    -4.50104  -0.17917  -4.89765 
 1                    -5.3267    0.35473  -3.40068 
 1                    -5.46782   1.32377  -4.89377 
 

 GradGradGradGradGradGradGradGradGradGradGradGradGradGradGradGradGradGrad
 Berny optimization.
 Initialization pass.
                           ----------------------------
                           !    Initial Parameters    !
                           ! (Angstroms and Degrees)  !
 --------------------------                            --------------------------
 ! Name  Definition              Value          Derivative Info.                !
 --------------------------------------------------------------------------------
 ! R1    R(1,10)                 1.4323         estimate D2E/DX2                !
 ! R2    R(2,7)                  1.3873         estimate D2E/DX2                !
 ! R3    R(2,23)                 1.4284         estimate D2E/DX2                !
 ! R4    R(3,8)                  1.4204         estimate D2E/DX2                !
 ! R5    R(3,13)                 0.9655         estimate D2E/DX2                !
 ! R6    R(4,9)                  1.4202         estimate D2E/DX2                !
 ! R7    R(4,14)                 0.9707         estimate D2E/DX2                !
 ! R8    R(5,7)                  1.4211         estimate D2E/DX2                !
 ! R9    R(5,11)                 1.4285         estimate D2E/DX2                !
 ! R10   R(6,12)                 1.4202         estimate D2E/DX2                !
 ! R11   R(6,15)                 0.9707         estimate D2E/DX2                !
 ! R12   R(7,8)                  1.5358         estimate D2E/DX2                !
 ! R13   R(7,16)                 1.1061         estimate D2E/DX2                !
 ! R14   R(8,9)                  1.5272         estimate D2E/DX2                !
 ! R15   R(8,17)                 1.0993         estimate D2E/DX2                !
 ! R16   R(9,10)                 1.5359         estimate D2E/DX2                !
 ! R17   R(9,18)                 1.1009         estimate D2E/DX2                !
 ! R18   R(10,11)                1.5343         estimate D2E/DX2                !
 ! R19   R(10,19)                1.0957         estimate D2E/DX2                !
 ! R20   R(11,12)                1.5324         estimate D2E/DX2                !
 ! R21   R(11,20)                1.1028         estimate D2E/DX2                !
 ! R22   R(12,21)                1.095          estimate D2E/DX2                !
 ! R23   R(12,22)                1.0952         estimate D2E/DX2                !
 ! R24   R(23,24)                1.0979         estimate D2E/DX2                !
 ! R25   R(23,25)                1.0946         estimate D2E/DX2                !
 ! R26   R(23,26)                1.0912         estimate D2E/DX2                !
 ! A1    A(7,2,23)             114.8699         estimate D2E/DX2                !
 ! A2    A(8,3,13)             107.4789         estimate D2E/DX2                !
 ! A3    A(9,4,14)             108.2213         estimate D2E/DX2                !
 ! A4    A(7,5,11)             112.0142         estimate D2E/DX2                !
 ! A5    A(12,6,15)            107.7544         estimate D2E/DX2                !
 ! A6    A(2,7,5)              109.1997         estimate D2E/DX2                !
 ! A7    A(2,7,8)              107.4195         estimate D2E/DX2                !
 ! A8    A(2,7,16)             110.3599         estimate D2E/DX2                !
 ! A9    A(5,7,8)              111.1098         estimate D2E/DX2                !
 ! A10   A(5,7,16)             108.8478         estimate D2E/DX2                !
 ! A11   A(8,7,16)             109.897          estimate D2E/DX2                !
 ! A12   A(3,8,7)              110.3589         estimate D2E/DX2                !
 ! A13   A(3,8,9)              108.6694         estimate D2E/DX2                !
 ! A14   A(3,8,17)             110.5642         estimate D2E/DX2                !
 ! A15   A(7,8,9)              110.5648         estimate D2E/DX2                !
 ! A16   A(7,8,17)             107.817          estimate D2E/DX2                !
 ! A17   A(9,8,17)             108.8559         estimate D2E/DX2                !
 ! A18   A(4,9,8)              108.2775         estimate D2E/DX2                !
 ! A19   A(4,9,10)             111.7367         estimate D2E/DX2                !
 ! A20   A(4,9,18)             109.8988         estimate D2E/DX2                !
 ! A21   A(8,9,10)             109.8955         estimate D2E/DX2                !
 ! A22   A(8,9,18)             108.5806         estimate D2E/DX2                !
 ! A23   A(10,9,18)            108.4039         estimate D2E/DX2                !
 ! A24   A(1,10,9)             111.2728         estimate D2E/DX2                !
 ! A25   A(1,10,11)            107.8579         estimate D2E/DX2                !
 ! A26   A(1,10,19)            109.2892         estimate D2E/DX2                !
 ! A27   A(9,10,11)            110.7981         estimate D2E/DX2                !
 ! A28   A(9,10,19)            109.295          estimate D2E/DX2                !
 ! A29   A(11,10,19)           108.2611         estimate D2E/DX2                !
 ! A30   A(5,11,10)            107.5799         estimate D2E/DX2                !
 ! A31   A(5,11,12)            109.6066         estimate D2E/DX2                !
 ! A32   A(5,11,20)            108.9756         estimate D2E/DX2                !
 ! A33   A(10,11,12)           114.074          estimate D2E/DX2                !
 ! A34   A(10,11,20)           109.4468         estimate D2E/DX2                !
 ! A35   A(12,11,20)           107.0771         estimate D2E/DX2                !
 ! A36   A(6,12,11)            114.5762         estimate D2E/DX2                !
 ! A37   A(6,12,21)            110.3594         estimate D2E/DX2                !
 ! A38   A(6,12,22)            107.8502         estimate D2E/DX2                !
 ! A39   A(11,12,21)           108.3223         estimate D2E/DX2                !
 ! A40   A(11,12,22)           107.452          estimate D2E/DX2                !
 ! A41   A(21,12,22)           108.0635         estimate D2E/DX2                !
 ! A42   A(2,23,24)            110.5736         estimate D2E/DX2                !
 ! A43   A(2,23,25)            111.0885         estimate D2E/DX2                !
 ! A44   A(2,23,26)            106.5935         estimate D2E/DX2                !
 ! A45   A(24,23,25)           109.5405         estimate D2E/DX2                !
 ! A46   A(24,23,26)           109.4394         estimate D2E/DX2                !
 ! A47   A(25,23,26)           109.551          estimate D2E/DX2                !
 ! D1    D(23,2,7,5)           -73.3385         estimate D2E/DX2                !
 ! D2    D(23,2,7,8)           166.0669         estimate D2E/DX2                !
 ! D3    D(23,2,7,16)           46.2724         estimate D2E/DX2                !
 ! D4    D(7,2,23,24)          -56.0036         estimate D2E/DX2                !
 ! D5    D(7,2,23,25)           65.8434         estimate D2E/DX2                !
 ! D6    D(7,2,23,26)         -174.8707         estimate D2E/DX2                !
 ! D7    D(13,3,8,7)            58.9252         estimate D2E/DX2                !
 ! D8    D(13,3,8,9)          -179.6846         estimate D2E/DX2                !
 ! D9    D(13,3,8,17)          -60.2704         estimate D2E/DX2                !
 ! D10   D(14,4,9,8)           178.2192         estimate D2E/DX2                !
 ! D11   D(14,4,9,10)           57.0545         estimate D2E/DX2                !
 ! D12   D(14,4,9,18)          -63.3284         estimate D2E/DX2                !
 ! D13   D(11,5,7,2)           178.2456         estimate D2E/DX2                !
 ! D14   D(11,5,7,8)           -63.4444         estimate D2E/DX2                !
 ! D15   D(11,5,7,16)           57.7047         estimate D2E/DX2                !
 ! D16   D(7,5,11,10)           65.335          estimate D2E/DX2                !
 ! D17   D(7,5,11,12)         -170.117          estimate D2E/DX2                !
 ! D18   D(7,5,11,20)          -53.2365         estimate D2E/DX2                !
 ! D19   D(15,6,12,11)         -93.2643         estimate D2E/DX2                !
 ! D20   D(15,6,12,21)          29.3121         estimate D2E/DX2                !
 ! D21   D(15,6,12,22)         147.1493         estimate D2E/DX2                !
 ! D22   D(2,7,8,3)            -66.3257         estimate D2E/DX2                !
 ! D23   D(2,7,8,9)            173.4163         estimate D2E/DX2                !
 ! D24   D(2,7,8,17)            54.5247         estimate D2E/DX2                !
 ! D25   D(5,7,8,3)            174.2947         estimate D2E/DX2                !
 ! D26   D(5,7,8,9)             54.0367         estimate D2E/DX2                !
 ! D27   D(5,7,8,17)           -64.8549         estimate D2E/DX2                !
 ! D28   D(16,7,8,3)            53.7634         estimate D2E/DX2                !
 ! D29   D(16,7,8,9)           -66.4946         estimate D2E/DX2                !
 ! D30   D(16,7,8,17)          174.6138         estimate D2E/DX2                !
 ! D31   D(3,8,9,4)             67.2163         estimate D2E/DX2                !
 ! D32   D(3,8,9,10)          -170.4868         estimate D2E/DX2                !
 ! D33   D(3,8,9,18)           -52.0705         estimate D2E/DX2                !
 ! D34   D(7,8,9,4)           -171.5197         estimate D2E/DX2                !
 ! D35   D(7,8,9,10)           -49.2228         estimate D2E/DX2                !
 ! D36   D(7,8,9,18)            69.1935         estimate D2E/DX2                !
 ! D37   D(17,8,9,4)           -53.2603         estimate D2E/DX2                !
 ! D38   D(17,8,9,10)           69.0366         estimate D2E/DX2                !
 ! D39   D(17,8,9,18)         -172.5471         estimate D2E/DX2                !
 ! D40   D(4,9,10,1)           -66.6782         estimate D2E/DX2                !
 ! D41   D(4,9,10,11)          173.3286         estimate D2E/DX2                !
 ! D42   D(4,9,10,19)           54.1118         estimate D2E/DX2                !
 ! D43   D(8,9,10,1)           173.1003         estimate D2E/DX2                !
 ! D44   D(8,9,10,11)           53.107          estimate D2E/DX2                !
 ! D45   D(8,9,10,19)          -66.1097         estimate D2E/DX2                !
 ! D46   D(18,9,10,1)           54.575          estimate D2E/DX2                !
 ! D47   D(18,9,10,11)         -65.4183         estimate D2E/DX2                !
 ! D48   D(18,9,10,19)         175.365          estimate D2E/DX2                !
 ! D49   D(1,10,11,5)          178.2141         estimate D2E/DX2                !
 ! D50   D(1,10,11,12)          56.4053         estimate D2E/DX2                !
 ! D51   D(1,10,11,20)         -63.5178         estimate D2E/DX2                !
 ! D52   D(9,10,11,5)          -59.7727         estimate D2E/DX2                !
 ! D53   D(9,10,11,12)         178.4185         estimate D2E/DX2                !
 ! D54   D(9,10,11,20)          58.4954         estimate D2E/DX2                !
 ! D55   D(19,10,11,5)          60.0647         estimate D2E/DX2                !
 ! D56   D(19,10,11,12)        -61.7441         estimate D2E/DX2                !
 ! D57   D(19,10,11,20)        178.3328         estimate D2E/DX2                !
 ! D58   D(5,11,12,6)          -79.2393         estimate D2E/DX2                !
 ! D59   D(5,11,12,21)         157.0885         estimate D2E/DX2                !
 ! D60   D(5,11,12,22)          40.5693         estimate D2E/DX2                !
 ! D61   D(10,11,12,6)          41.4457         estimate D2E/DX2                !
 ! D62   D(10,11,12,21)        -82.2265         estimate D2E/DX2                !
 ! D63   D(10,11,12,22)        161.2543         estimate D2E/DX2                !
 ! D64   D(20,11,12,6)         162.692          estimate D2E/DX2                !
 ! D65   D(20,11,12,21)         39.0198         estimate D2E/DX2                !
 ! D66   D(20,11,12,22)        -77.4994         estimate D2E/DX2                !
 --------------------------------------------------------------------------------
 Trust Radius=3.00D-01 FncErr=1.00D-07 GrdErr=1.00D-06
 Number of steps in this run=    149 maximum allowed number of steps=    156.
 GradGradGradGradGradGradGradGradGradGradGradGradGradGradGradGradGradGrad

                          Input orientation:                          
 ---------------------------------------------------------------------
 Center     Atomic      Atomic             Coordinates (Angstroms)
 Number     Number       Type             X           Y           Z
 ---------------------------------------------------------------------
      1          8           0        0.143036    0.021040   -0.338566
      2          8           0       -3.668724    1.491722   -3.968378
      3          8           0       -0.937125    1.846050   -4.676827
      4          8           0        0.761495    2.060582   -2.399967
      5          8           0       -3.060965    0.564269   -1.965573
      6          8           0       -2.695657    0.386411    1.106445
      7          6           0       -2.654767    0.817498   -3.303621
      8          6           0       -1.406014    1.710675   -3.342953
      9          6           0       -0.289869    1.110118   -2.490996
     10          6           0       -0.835579    0.731220   -1.106250
     11          6           0       -2.073778   -0.165638   -1.235351
     12          6           0       -2.658478   -0.620878    0.105971
     13          1           0       -1.652818    2.230929   -5.198128
     14          1           0        1.458181    1.689385   -1.835033
     15          1           0       -1.882376    0.312537    1.631234
     16          1           0       -2.443343   -0.147304   -3.801538
     17          1           0       -1.680659    2.691289   -2.928785
     18          1           0        0.073771    0.195141   -2.983557
     19          1           0       -1.125454    1.641555   -0.569846
     20          1           0       -1.810593   -1.075893   -1.799538
     21          1           0       -2.084139   -1.484859    0.456380
     22          1           0       -3.686951   -0.948967   -0.078465
     23          6           0       -4.804186    0.691649   -4.301627
     24          1           0       -4.501037   -0.179173   -4.897650
     25          1           0       -5.326698    0.354728   -3.400675
     26          1           0       -5.467821    1.323771   -4.893770
 ---------------------------------------------------------------------
                    Distance matrix (angstroms):
                    1          2          3          4          5
     1  O    0.000000
     2  O    5.465158   0.000000
     3  O    4.828863   2.844131   0.000000
     4  O    2.965063   4.733958   2.848759   0.000000
     5  O    3.634264   2.289272   3.674855   4.127814   0.000000
     6  O    3.206202   5.284165   6.218458   5.200930   3.098770
     7  C    4.153745   1.387295   2.427737   3.746024   1.421089
     8  C    3.778990   2.357743   1.420353   2.389509   2.439321
     9  C    2.450807   3.707417   2.395494   1.420223   2.872802
    10  C    1.432265   4.098396   3.741948   2.447765   2.391370
    11  C    2.398611   3.572133   4.145193   3.788292   1.428470
    12  C    2.908290   4.699361   5.650128   5.016589   2.420302
    13  H    5.632410   2.474387   0.965455   3.699680   3.900006
    14  H    2.598537   5.556562   3.719923   0.970726   4.658928
    15  H    2.840313   5.994762   6.560244   5.127991   3.793344
    16  H    4.325491   2.053241   2.647316   4.136442   2.063628
    17  H    4.143106   2.544036   2.079164   2.577122   2.712423
    18  H    2.651620   4.081331   2.571882   2.072055   3.316492
    19  H    2.070900   4.247434   4.116379   2.661861   2.618168
    20  H    2.674765   3.840464   4.192790   4.100442   2.069089
    21  H    2.803565   5.563221   6.225786   5.369032   3.319484
    22  H    3.959465   4.592245   6.043062   5.851105   2.498583
    23  C    6.374212   1.428442   4.053095   6.038799   2.917566
    24  H    6.510971   2.085229   4.105089   6.240927   3.350163
    25  H    6.277408   2.089000   4.808426   6.401363   2.690162
    26  H    7.343617   2.030100   4.565857   6.750283   3.865765
                    6          7          8          9         10
     6  O    0.000000
     7  C    4.431274   0.000000
     8  C    4.818091   1.535805   0.000000
     9  C    4.387841   2.517683   1.527180   0.000000
    10  C    2.911151   2.854002   2.507502   1.535866   0.000000
    11  C    2.485055   2.362593   2.899732   2.527158   1.534327
    12  C    1.420198   3.700575   4.347399   3.918022   2.573055
    13  H    6.651120   2.567264   1.942486   3.231472   4.434013
    14  H    5.253989   4.453457   3.236957   1.954870   2.590471
    15  H    0.970715   5.020395   5.188858   4.490545   2.960557
    16  H    4.943360   1.106103   2.176795   2.817105   3.259032
    17  H    4.756655   2.144873   1.099349   2.150827   2.806718
    18  H    4.943120   2.816858   2.148435   1.100924   2.153736
    19  H    2.617418   3.239042   2.788120   2.161353   1.095658
    20  H    3.371410   2.561216   3.211040   2.751247   2.167247
    21  H    2.073208   4.445680   5.010611   4.317446   2.985251
    22  H    2.042036   3.819350   4.788867   4.647613   3.465500
    23  C    5.812599   2.373153   3.674921   4.881860   5.095276
    24  H    6.295112   2.634956   3.945602   5.018784   5.351552
    25  H    5.218957   2.713446   4.148938   5.173758   5.057300
    26  H    6.675786   3.270804   4.364975   5.712281   6.012827
                   11         12         13         14         15
    11  C    0.000000
    12  C    1.532404   0.000000
    13  H    4.650198   6.105540   0.000000
    14  H    4.034286   5.104086   4.613241   0.000000
    15  H    2.912490   1.949365   7.097402   5.006999   0.000000
    16  H    2.592726   3.941977   2.869039   4.739458   5.480981
    17  H    3.344293   4.597426   2.315734   3.471660   5.147128
    18  H    2.792553   4.204314   3.468410   2.338475   5.013640
    19  H    2.146663   2.815225   4.695367   2.877178   2.680293
    20  H    1.102786   2.134693   4.744510   4.281694   3.701768
    21  H    2.145322   1.095041   6.779866   5.279624   2.156762
    22  H    2.134085   1.095178   6.360848   6.043080   2.787643
    23  C    4.194296   5.074811   3.619975   6.804175   6.624163
    24  H    4.393655   5.350360   3.743158   6.955819   7.051630
    25  H    3.942194   4.513067   4.499818   7.089931   6.097970
    26  H    5.207869   6.055698   3.933169   7.580175   7.513567
                   16         17         18         19         20
    16  H    0.000000
    17  H    3.066104   0.000000
    18  H    2.668750   3.051521   0.000000
    19  H    3.921821   2.640982   3.058800   0.000000
    20  H    2.295791   3.934939   2.562861   3.060405   0.000000
    21  H    4.477493   5.390951   4.394558   3.427343   2.308949
    22  H    4.006307   5.039940   4.887901   3.676075   2.549298
    23  C    2.554899   3.954703   5.077233   5.325559   4.283253
    24  H    2.331648   4.480013   4.973201   5.782690   4.200106
    25  H    2.954059   4.356122   5.418904   5.226851   4.119868
    26  H    3.536170   4.480387   5.969251   6.136241   5.357982
                   21         22         23         24         25
    21  H    0.000000
    22  H    1.772638   0.000000
    23  C    5.896988   4.666362   0.000000
    24  H    6.017628   4.947713   1.097941   0.000000
    25  H    5.364247   3.927527   1.094646   1.791005   0.000000
    26  H    6.925447   5.614624   1.091157   1.787044   1.785579
                   26
    26  H    0.000000
 Symmetry turned off by external request.
 Stoichiometry    C7H13O6(1-)
 Framework group  C1[X(C7H13O6)]
 Deg. of freedom    72
 Full point group                 C1      NOp   1
 Rotational constants (GHZ):      0.9449481      0.6785218      0.4252123
 Standard basis: 6-31+G(2df,p) (6D, 7F)
 Integral buffers will be    131072 words long.
 Raffenetti 2 integral format.
 Two-electron integral symmetry is turned off.
   481 basis functions,   715 primitive gaussians,   520 cartesian basis functions
    52 alpha electrons       52 beta electrons
       nuclear repulsion energy       918.7179128042 Hartrees.
 NAtoms=   26 NActive=   26 NUniq=   26 SFac= 1.00D+00 NAtFMM=   50 NAOKFM=F Big=F
 ------------------------------------------------------------------------------
 Polarizable Continuum Model (PCM)
 =================================
 Model                : PCM.
 Atomic radii         : UFF (Universal Force Field).
 Polarization charges : Total charges.
 Charge compensation  : None.
 Solution method      : Matrix inversion.
 Cavity type          : Scaled VdW (van der Waals Surface) (Alpha=1.100).
 Cavity algorithm     : GePol (No added spheres)
                        Default sphere list used, NSphG=   26.
                        Lebedev-Laikov grids with approx.  5.0 points / Ang**2.
                        Smoothing algorithm: Karplus/York (Gamma=1.0000).
                        Polarization charges: spherical gaussians, with
                                              point-specific exponents (IZeta= 3).
                        Self-potential: point-specific (ISelfS= 7).
                        Self-field    : sphere-specific E.n sum rule (ISelfD= 2).
 1st derivatives      : Analytical E(r).r(x)/FMM algorithm (CHGder, D1EAlg=3).
                        Cavity 1st derivative terms included.
 Solvent              : TetraHydroFuran, Eps=   7.425700 Eps(inf)=   1.974025
 ------------------------------------------------------------------------------
 One-electron integrals computed using PRISM.
 NBasis=   481 RedAO= T  NBF=   481
 NBsUse=   481 1.00D-06 NBFU=   481
 Harris functional with IExCor=  402 diagonalized for initial guess.
 ExpMin= 4.38D-02 ExpMax= 5.48D+03 ExpMxC= 8.25D+02 IAcc=2 IRadAn=         0 AccDes= 0.00D+00
 HarFok:  IExCor=  402 AccDes= 0.00D+00 IRadAn=         0 IDoV= 1
 ScaDFX=  1.000000  1.000000  1.000000  1.000000
 FoFCou: FMM=F IPFlag=           0 FMFlag=      100000 FMFlg1=           0
         NFxFlg=           0 DoJE=T BraDBF=F KetDBF=T FulRan=T
         Omega=  0.000000  0.000000  1.000000  0.000000  0.000000 ICntrl=     500 IOpCl=  0
         NMat0=    1 NMatS0=    1 NMatT0=    0 NMatD0=    1 NMtDS0=    0 NMtDT0=    0
         I1Cent=           4 NGrid=           0.
 Symmetry not used in FoFCou.
 Requested convergence on RMS density matrix=1.00D-08 within 128 cycles.
 Requested convergence on MAX density matrix=1.00D-06.
 Requested convergence on             energy=1.00D-06.
 No special actions if energy rises.
 EnCoef did     2 forward-backward iterations
 Error on total polarization charges =  0.02007
 SCF Done:  E(RB3LYP) =  -726.066431399     A.U. after   15 cycles
             Convg  =    0.5289D-08             -V/T =  2.0070

 **********************************************************************

            Population analysis using the SCF density.

 **********************************************************************

 Alpha  occ. eigenvalues --  -19.15464 -19.13895 -19.13170 -19.12954 -19.12388
 Alpha  occ. eigenvalues --  -19.00466 -10.26688 -10.22062 -10.21618 -10.20747
 Alpha  occ. eigenvalues --  -10.20097 -10.19956 -10.16815  -1.06791  -1.01833
 Alpha  occ. eigenvalues --   -1.00985  -0.99864  -0.99468  -0.85162  -0.75607
 Alpha  occ. eigenvalues --   -0.72665  -0.69534  -0.63622  -0.59951  -0.58299
 Alpha  occ. eigenvalues --   -0.55219  -0.51022  -0.50325  -0.50065  -0.48316
 Alpha  occ. eigenvalues --   -0.46636  -0.45035  -0.43063  -0.42757  -0.41310
 Alpha  occ. eigenvalues --   -0.40539  -0.38708  -0.37388  -0.36383  -0.34823
 Alpha  occ. eigenvalues --   -0.33071  -0.32818  -0.32144  -0.30796  -0.28622
 Alpha  occ. eigenvalues --   -0.27897  -0.27537  -0.26040  -0.25458  -0.24053
 Alpha  occ. eigenvalues --   -0.15819  -0.15658
 Alpha virt. eigenvalues --    0.02228   0.02539   0.02615   0.03265   0.04339
 Alpha virt. eigenvalues --    0.05160   0.05998   0.06362   0.06691   0.07050
 Alpha virt. eigenvalues --    0.08547   0.09398   0.09943   0.10221   0.10617
 Alpha virt. eigenvalues --    0.11731   0.12700   0.12993   0.13895   0.14638
 Alpha virt. eigenvalues --    0.15085   0.15802   0.15935   0.16550   0.17385
 Alpha virt. eigenvalues --    0.18037   0.18916   0.19617   0.20015   0.20509
 Alpha virt. eigenvalues --    0.21459   0.22170   0.22389   0.22644   0.22995
 Alpha virt. eigenvalues --    0.23326   0.24124   0.24532   0.24941   0.25972
 Alpha virt. eigenvalues --    0.26228   0.26627   0.27222   0.27685   0.28152
 Alpha virt. eigenvalues --    0.28683   0.28830   0.29754   0.30500   0.30784
 Alpha virt. eigenvalues --    0.31071   0.31628   0.32457   0.33338   0.33604
 Alpha virt. eigenvalues --    0.33819   0.34126   0.34796   0.35085   0.35569
 Alpha virt. eigenvalues --    0.35844   0.36315   0.37238   0.37985   0.38177
 Alpha virt. eigenvalues --    0.39077   0.40032   0.40699   0.42251   0.42526
 Alpha virt. eigenvalues --    0.42877   0.43317   0.44437   0.44758   0.45224
 Alpha virt. eigenvalues --    0.46863   0.48336   0.49968   0.58127   0.59994
 Alpha virt. eigenvalues --    0.60791   0.63376   0.64290   0.65555   0.66266
 Alpha virt. eigenvalues --    0.67794   0.69664   0.70910   0.71967   0.73107
 Alpha virt. eigenvalues --    0.73672   0.75656   0.75876   0.77092   0.77701
 Alpha virt. eigenvalues --    0.78422   0.79587   0.81352   0.81979   0.83008
 Alpha virt. eigenvalues --    0.83613   0.84016   0.86318   0.89689   0.90172
 Alpha virt. eigenvalues --    0.92270   0.93175   0.94379   0.94724   0.95512
 Alpha virt. eigenvalues --    0.96157   0.96324   0.98293   0.98467   0.99342
 Alpha virt. eigenvalues --    1.00792   1.02563   1.03003   1.04273   1.05750
 Alpha virt. eigenvalues --    1.05935   1.07447   1.08735   1.09183   1.11409
 Alpha virt. eigenvalues --    1.12196   1.12568   1.13669   1.14541   1.17177
 Alpha virt. eigenvalues --    1.17949   1.19998   1.20598   1.21045   1.22646
 Alpha virt. eigenvalues --    1.22891   1.24346   1.24828   1.25827   1.26746
 Alpha virt. eigenvalues --    1.27180   1.27967   1.29470   1.30491   1.32458
 Alpha virt. eigenvalues --    1.33043   1.33555   1.34270   1.35979   1.36301
 Alpha virt. eigenvalues --    1.37890   1.38703   1.39503   1.40233   1.42201
 Alpha virt. eigenvalues --    1.43128   1.44068   1.45916   1.46873   1.47918
 Alpha virt. eigenvalues --    1.49962   1.51905   1.54495   1.55339   1.55421
 Alpha virt. eigenvalues --    1.57708   1.59172   1.60547   1.61238   1.61823
 Alpha virt. eigenvalues --    1.63780   1.65299   1.66547   1.68417   1.69910
 Alpha virt. eigenvalues --    1.70655   1.72119   1.74659   1.75407   1.77220
 Alpha virt. eigenvalues --    1.78474   1.79796   1.82076   1.84613   1.86431
 Alpha virt. eigenvalues --    1.88155   1.89581   1.92244   1.93284   1.94627
 Alpha virt. eigenvalues --    1.96389   1.96672   1.97225   1.99493   2.00752
 Alpha virt. eigenvalues --    2.03297   2.03930   2.05117   2.07061   2.10566
 Alpha virt. eigenvalues --    2.11917   2.16391   2.19416   2.21585   2.26826
 Alpha virt. eigenvalues --    2.28001   2.30802   2.31851   2.32418   2.36619
 Alpha virt. eigenvalues --    2.38847   2.40752   2.45299   2.46829   2.49264
 Alpha virt. eigenvalues --    2.55382   2.56226   2.57765   2.59958   2.60765
 Alpha virt. eigenvalues --    2.62055   2.62954   2.66897   2.70203   2.73606
 Alpha virt. eigenvalues --    2.75979   2.78555   2.79891   2.81665   2.83546
 Alpha virt. eigenvalues --    2.85039   2.86344   2.89552   2.90856   2.92033
 Alpha virt. eigenvalues --    2.94033   2.94952   2.95991   2.97880   2.99085
 Alpha virt. eigenvalues --    2.99478   3.00697   3.01684   3.01950   3.06035
 Alpha virt. eigenvalues --    3.07528   3.08357   3.11174   3.11663   3.15626
 Alpha virt. eigenvalues --    3.16560   3.22273   3.22998   3.25947   3.27982
 Alpha virt. eigenvalues --    3.30175   3.31327   3.33992   3.35568   3.37707
 Alpha virt. eigenvalues --    3.39516   3.41320   3.42519   3.44828   3.46862
 Alpha virt. eigenvalues --    3.48032   3.49767   3.51613   3.56213   3.57622
 Alpha virt. eigenvalues --    3.58918   3.61895   3.65018   3.65634   3.68607
 Alpha virt. eigenvalues --    3.71017   3.72040   3.73224   3.73832   3.76804
 Alpha virt. eigenvalues --    3.78120   3.80665   3.86265   3.86502   3.87528
 Alpha virt. eigenvalues --    3.89634   3.93270   3.98892   4.01074   4.04045
 Alpha virt. eigenvalues --    4.07670   4.12131   4.16893   4.19504   4.22463
 Alpha virt. eigenvalues --    4.23124   4.27612   4.30083   4.30282   4.34875
 Alpha virt. eigenvalues --    4.35807   4.35933   4.37885   4.38858   4.39642
 Alpha virt. eigenvalues --    4.41252   4.42228   4.42771   4.44816   4.45388
 Alpha virt. eigenvalues --    4.47555   4.48895   4.49672   4.51524   4.53299
 Alpha virt. eigenvalues --    4.54006   4.55046   4.55834   4.56460   4.57572
 Alpha virt. eigenvalues --    4.60673   4.61949   4.62718   4.63174   4.64776
 Alpha virt. eigenvalues --    4.65877   4.67019   4.68581   4.70401   4.71314
 Alpha virt. eigenvalues --    4.71744   4.72759   4.74269   4.75746   4.76588
 Alpha virt. eigenvalues --    4.77107   4.79184   4.80219   4.81091   4.81677
 Alpha virt. eigenvalues --    4.83244   4.84114   4.86219   4.88145   4.88999
 Alpha virt. eigenvalues --    4.89277   4.93053   4.96014   4.97827   5.00586
 Alpha virt. eigenvalues --    5.01149   5.02461   5.04636   5.05518   5.09512
 Alpha virt. eigenvalues --    5.11093   5.13889   5.16180   5.20069   5.21378
 Alpha virt. eigenvalues --    5.24662   5.26262   5.28122   5.29996   5.32725
 Alpha virt. eigenvalues --    5.36137   5.37939   5.43700   5.44794   5.45824
 Alpha virt. eigenvalues --    5.46760   5.47457   5.48781   5.50307   5.50749
 Alpha virt. eigenvalues --    5.51436   5.52782   5.54886   5.59009   5.60851
 Alpha virt. eigenvalues --    5.63159   5.65616   5.68478   5.73019   5.74538
 Alpha virt. eigenvalues --    5.81086   5.87739   5.89287   5.91920   5.92493
 Alpha virt. eigenvalues --    5.94932   5.98882   6.01978   6.04728   6.05616
 Alpha virt. eigenvalues --    6.06670   6.07636   6.09079   6.10770   6.11896
 Alpha virt. eigenvalues --    6.15661   6.17463   6.19156   6.19772   6.26313
 Alpha virt. eigenvalues --    6.30094   6.36777   6.44319   6.86895   7.02203
 Alpha virt. eigenvalues --    7.12892   7.19581   7.31369   7.34995   7.46652
 Alpha virt. eigenvalues --    7.88325  11.93564  12.05982  12.19758  12.49991
 Alpha virt. eigenvalues --   12.81482  12.93349  13.24464  13.35979  13.41539
 Alpha virt. eigenvalues --   13.58776  13.62180  13.76193  14.05122
          Condensed to atoms (all electrons):
              1          2          3          4          5          6
     1  O    8.845880  -0.000110  -0.000192  -0.037552   0.008149  -0.024090
     2  O   -0.000110   7.862914  -0.016535   0.000477  -0.022502  -0.000191
     3  O   -0.000192  -0.016535   8.142265   0.001372   0.002152  -0.000128
     4  O   -0.037552   0.000477   0.001372   8.166631  -0.001588   0.000270
     5  O    0.008149  -0.022502   0.002152  -0.001588   7.977914  -0.002889
     6  O   -0.024090  -0.000191  -0.000128   0.000270  -0.002889   8.087090
     7  C    0.007466   0.297952   0.039440   0.018690   0.210039   0.009764
     8  C    0.018373   0.001235   0.138766  -0.114685  -0.071385   0.010561
     9  C   -0.069382  -0.007041  -0.093881   0.287855  -0.039101   0.016937
    10  C    0.368666  -0.011841   0.055949  -0.036523   0.068885  -0.077328
    11  C   -0.215066   0.003486  -0.027091  -0.009213   0.152907   0.011150
    12  C    0.000792   0.005443   0.001429   0.001204  -0.072975   0.192682
    13  H    0.000027   0.007833   0.259081  -0.000552  -0.000085   0.000002
    14  H    0.020239  -0.000041  -0.000736   0.257244  -0.000043   0.000107
    15  H    0.010678   0.000004   0.000000   0.000004   0.001506   0.281699
    16  H    0.000253  -0.035226   0.003630   0.000332  -0.056009  -0.000258
    17  H    0.000520  -0.001399  -0.030087   0.003263   0.001758  -0.000240
    18  H   -0.000916   0.000136   0.002410  -0.033603   0.003225   0.000100
    19  H   -0.065904  -0.001170   0.000368  -0.000754   0.003459   0.006396
    20  H   -0.000972  -0.000662  -0.000046   0.000519  -0.042230   0.006294
    21  H   -0.003082  -0.000017   0.000000  -0.000015   0.000159  -0.018604
    22  H    0.000894   0.000005  -0.000007   0.000004   0.001494  -0.044325
    23  C   -0.000547   0.139492  -0.003371   0.000085   0.028464   0.000331
    24  H    0.000001  -0.047152   0.000331   0.000003  -0.001189   0.000002
    25  H   -0.000004  -0.031282  -0.000223  -0.000003   0.000035  -0.000045
    26  H    0.000000  -0.042494   0.000158   0.000000   0.000095   0.000000
              7          8          9         10         11         12
     1  O    0.007466   0.018373  -0.069382   0.368666  -0.215066   0.000792
     2  O    0.297952   0.001235  -0.007041  -0.011841   0.003486   0.005443
     3  O    0.039440   0.138766  -0.093881   0.055949  -0.027091   0.001429
     4  O    0.018690  -0.114685   0.287855  -0.036523  -0.009213   0.001204
     5  O    0.210039  -0.071385  -0.039101   0.068885   0.152907  -0.072975
     6  O    0.009764   0.010561   0.016937  -0.077328   0.011150   0.192682
     7  C    7.129117  -1.333499  -0.085861   1.234940  -1.349346  -0.421378
     8  C   -1.333499   7.134335  -0.080030  -0.925792   0.811292   0.258821
     9  C   -0.085861  -0.080030   6.490665  -1.075872   0.541418  -0.027980
    10  C    1.234940  -0.925792  -1.075872   9.172531  -2.775574  -0.311520
    11  C   -1.349346   0.811292   0.541418  -2.775574   9.294715  -0.577260
    12  C   -0.421378   0.258821  -0.027980  -0.311520  -0.577260   6.462930
    13  H   -0.059789   0.042924   0.011664  -0.009444   0.004786  -0.000186
    14  H   -0.008995   0.038314   0.002806  -0.073605   0.024525  -0.001470
    15  H   -0.002533   0.000943   0.001894   0.035120  -0.082437   0.020760
    16  H    0.284201   0.060144  -0.027627  -0.041433   0.069861   0.027594
    17  H   -0.118344   0.493186  -0.112824  -0.035200   0.062690   0.012596
    18  H    0.039174  -0.088255   0.369729  -0.044177   0.011225  -0.006895
    19  H    0.110030  -0.032111  -0.193306   0.664025  -0.196389  -0.067436
    20  H    0.111887  -0.061423  -0.026846   0.080468   0.191420  -0.010280
    21  H   -0.003394   0.003926  -0.005177  -0.051313  -0.043655   0.458424
    22  H   -0.016628   0.009378   0.004911   0.025082  -0.239197   0.570313
    23  C   -0.046379  -0.142814   0.023339   0.003526  -0.005670  -0.035184
    24  H    0.013861  -0.003478   0.001242  -0.001697  -0.003479   0.000122
    25  H   -0.012254   0.012443   0.000349  -0.001522   0.002745   0.000598
    26  H    0.005769  -0.003749  -0.001400   0.000240   0.002201   0.000187
             13         14         15         16         17         18
     1  O    0.000027   0.020239   0.010678   0.000253   0.000520  -0.000916
     2  O    0.007833  -0.000041   0.000004  -0.035226  -0.001399   0.000136
     3  O    0.259081  -0.000736   0.000000   0.003630  -0.030087   0.002410
     4  O   -0.000552   0.257244   0.000004   0.000332   0.003263  -0.033603
     5  O   -0.000085  -0.000043   0.001506  -0.056009   0.001758   0.003225
     6  O    0.000002   0.000107   0.281699  -0.000258  -0.000240   0.000100
     7  C   -0.059789  -0.008995  -0.002533   0.284201  -0.118344   0.039174
     8  C    0.042924   0.038314   0.000943   0.060144   0.493186  -0.088255
     9  C    0.011664   0.002806   0.001894  -0.027627  -0.112824   0.369729
    10  C   -0.009444  -0.073605   0.035120  -0.041433  -0.035200  -0.044177
    11  C    0.004786   0.024525  -0.082437   0.069861   0.062690   0.011225
    12  C   -0.000186  -0.001470   0.020760   0.027594   0.012596  -0.006895
    13  H    0.403009   0.000032   0.000000  -0.000121  -0.005346  -0.000128
    14  H    0.000032   0.391076  -0.000004   0.000003  -0.000195  -0.004004
    15  H    0.000000  -0.000004   0.385852   0.000001   0.000001  -0.000003
    16  H   -0.000121   0.000003   0.000001   0.614735   0.004559   0.001476
    17  H   -0.005346  -0.000195   0.000001   0.004559   0.591910   0.005166
    18  H   -0.000128  -0.004004  -0.000003   0.001476   0.005166   0.615892
    19  H    0.000014   0.000228  -0.001254  -0.000075   0.001001   0.005374
    20  H    0.000005   0.000001  -0.000019   0.004266  -0.000059   0.002405
    21  H    0.000000   0.000000  -0.011935  -0.000005   0.000000  -0.000014
    22  H    0.000000   0.000000   0.005414  -0.000024  -0.000002  -0.000001
    23  C   -0.003073  -0.000009  -0.000049  -0.032453  -0.010348   0.000452
    24  H   -0.000014   0.000000   0.000000   0.006673  -0.000007  -0.000002
    25  H    0.000007   0.000000   0.000000  -0.001108   0.000007   0.000000
    26  H   -0.000004   0.000000   0.000000   0.000030   0.000014   0.000000
             19         20         21         22         23         24
     1  O   -0.065904  -0.000972  -0.003082   0.000894  -0.000547   0.000001
     2  O   -0.001170  -0.000662  -0.000017   0.000005   0.139492  -0.047152
     3  O    0.000368  -0.000046   0.000000  -0.000007  -0.003371   0.000331
     4  O   -0.000754   0.000519  -0.000015   0.000004   0.000085   0.000003
     5  O    0.003459  -0.042230   0.000159   0.001494   0.028464  -0.001189
     6  O    0.006396   0.006294  -0.018604  -0.044325   0.000331   0.000002
     7  C    0.110030   0.111887  -0.003394  -0.016628  -0.046379   0.013861
     8  C   -0.032111  -0.061423   0.003926   0.009378  -0.142814  -0.003478
     9  C   -0.193306  -0.026846  -0.005177   0.004911   0.023339   0.001242
    10  C    0.664025   0.080468  -0.051313   0.025082   0.003526  -0.001697
    11  C   -0.196389   0.191420  -0.043655  -0.239197  -0.005670  -0.003479
    12  C   -0.067436  -0.010280   0.458424   0.570313  -0.035184   0.000122
    13  H    0.000014   0.000005   0.000000   0.000000  -0.003073  -0.000014
    14  H    0.000228   0.000001   0.000000   0.000000  -0.000009   0.000000
    15  H   -0.001254  -0.000019  -0.011935   0.005414  -0.000049   0.000000
    16  H   -0.000075   0.004266  -0.000005  -0.000024  -0.032453   0.006673
    17  H    0.001001  -0.000059   0.000000  -0.000002  -0.010348  -0.000007
    18  H    0.005374   0.002405  -0.000014  -0.000001   0.000452  -0.000002
    19  H    0.663347   0.005191  -0.000077  -0.000035   0.000752   0.000000
    20  H    0.005191   0.635164  -0.003481   0.002070   0.002587   0.000009
    21  H   -0.000077  -0.003481   0.554241  -0.035326  -0.000269   0.000000
    22  H   -0.000035   0.002070  -0.035326   0.579986  -0.001576  -0.000001
    23  C    0.000752   0.002587  -0.000269  -0.001576   5.257445   0.396943
    24  H    0.000000   0.000009   0.000000  -0.000001   0.396943   0.541149
    25  H   -0.000001  -0.000016  -0.000001   0.000032   0.395687  -0.037597
    26  H    0.000000   0.000000   0.000000   0.000000   0.407761  -0.027398
             25         26
     1  O   -0.000004   0.000000
     2  O   -0.031282  -0.042494
     3  O   -0.000223   0.000158
     4  O   -0.000003   0.000000
     5  O    0.000035   0.000095
     6  O   -0.000045   0.000000
     7  C   -0.012254   0.005769
     8  C    0.012443  -0.003749
     9  C    0.000349  -0.001400
    10  C   -0.001522   0.000240
    11  C    0.002745   0.002201
    12  C    0.000598   0.000187
    13  H    0.000007  -0.000004
    14  H    0.000000   0.000000
    15  H    0.000000   0.000000
    16  H   -0.001108   0.000030
    17  H    0.000007   0.000014
    18  H    0.000000   0.000000
    19  H   -0.000001   0.000000
    20  H   -0.000016   0.000000
    21  H   -0.000001   0.000000
    22  H    0.000032   0.000000
    23  C    0.395687   0.407761
    24  H   -0.037597  -0.027398
    25  H    0.524121  -0.029133
    26  H   -0.029133   0.518828
 Mulliken atomic charges:
              1
     1  O   -0.864118
     2  O   -0.101316
     3  O   -0.475055
     4  O   -0.503465
     5  O   -0.150245
     6  O   -0.455288
     7  C   -0.053931
     8  C   -0.177420
     9  C    0.093520
    10  C   -0.236587
    11  C    0.339956
    12  C   -0.481329
    13  H    0.349361
    14  H    0.354526
    15  H    0.354357
    16  H    0.116580
    17  H    0.137382
    18  H    0.121234
    19  H    0.098326
    20  H    0.103746
    21  H    0.159614
    22  H    0.137539
    23  C   -0.375122
    24  H    0.161677
    25  H    0.177164
    26  H    0.168896
 Sum of Mulliken atomic charges =  -1.00000
 Mulliken charges with hydrogens summed into heavy atoms:
              1
     1  O   -0.864118
     2  O   -0.101316
     3  O   -0.125694
     4  O   -0.148939
     5  O   -0.150245
     6  O   -0.100931
     7  C    0.062649
     8  C   -0.040038
     9  C    0.214753
    10  C   -0.138261
    11  C    0.443702
    12  C   -0.184176
    23  C    0.132614
 Sum of Mulliken charges with hydrogens summed into heavy atoms =  -1.00000
 Electronic spatial extent (au):  <R**2>=           5896.6686
 Charge=             -1.0000 electrons
 Dipole moment (field-independent basis, Debye):
    X=              0.5830    Y=             -4.7698    Z=              3.6419  Tot=              6.0294
 Quadrupole moment (field-independent basis, Debye-Ang):
   XX=            -88.1669   YY=            -90.6216   ZZ=            -91.2664
   XY=              6.1151   XZ=             12.5106   YZ=             10.9126
 Traceless Quadrupole moment (field-independent basis, Debye-Ang):
   XX=              1.8514   YY=             -0.6033   ZZ=             -1.2481
   XY=              6.1151   XZ=             12.5106   YZ=             10.9126
 Octapole moment (field-independent basis, Debye-Ang**2):
  XXX=            467.6840  YYY=           -208.3899  ZZZ=            547.8607  XYY=            150.7077
  XXY=            -85.6118  XXZ=            122.0604  XZZ=             94.9779  YZZ=            -97.0523
  YYZ=            195.4934  XYZ=              6.2546
 Hexadecapole moment (field-independent basis, Debye-Ang**3):
 XXXX=          -2938.5042 YYYY=           -790.4985 ZZZZ=          -3843.2800 XXXY=            339.7425
 XXXZ=           -863.6420 YYYX=            248.2837 YYYZ=            672.5918 ZZZX=           -782.3554
 ZZZY=            707.0968 XXYY=           -658.9405 XXZZ=           -931.2013 YYZZ=           -809.5734
 XXYZ=            210.1109 YYXZ=           -346.8165 ZZXY=             33.8028
 N-N= 9.187179128042D+02 E-N=-3.556080244476D+03  KE= 7.210256959770D+02
 D1PCM: PCM CHGder 1st derivatives, ID1Alg=3 FixD1E=F DoIter=F DoCFld=F I1PDM=0.
 Calling FoFJK, ICntrl=      2127 FMM=F ISym2X=0 I1Cent= 0 IOpClX= 0 NMat=1 NMatS=1 NMatT=0.
 -------------------------------------------------------------------
 Center     Atomic                   Forces (Hartrees/Bohr)
 Number     Number              X              Y              Z
 -------------------------------------------------------------------
      1        8          -0.009913402    0.017037855   -0.015303342
      2        8          -0.004292150    0.000703508   -0.003458013
      3        8          -0.001379030    0.002179346   -0.006388944
      4        8           0.006845980    0.003032423   -0.001317581
      5        8          -0.014631038    0.000812670   -0.010361654
      6        8           0.000903216   -0.000055836    0.009289761
      7        6           0.002857194   -0.000938925    0.009174438
      8        6           0.004665223   -0.000593094    0.002660371
      9        6          -0.012057710    0.000053606    0.002333663
     10        6           0.034573259   -0.038296737    0.030165471
     11        6           0.006192128    0.008958937   -0.000442175
     12        6           0.003041081   -0.002229328   -0.006832420
     13        1           0.000231699   -0.000172767   -0.000392437
     14        1          -0.007927111   -0.002229500    0.000983275
     15        1          -0.003365717    0.002708900   -0.008063723
     16        1           0.000073149   -0.000272905   -0.000545621
     17        1          -0.000408201    0.000207268   -0.000494366
     18        1           0.000321393   -0.000507421    0.000227862
     19        1          -0.004855399    0.007556005   -0.002211619
     20        1           0.000362891   -0.000753394   -0.000258526
     21        1          -0.000593147    0.001361771   -0.000665761
     22        1          -0.001845970    0.000557275    0.001407672
     23        6           0.001661490    0.001413922    0.000783036
     24        1          -0.000019770   -0.000326146   -0.000096270
     25        1          -0.000085429   -0.000238504    0.000056223
     26        1          -0.000354627    0.000031074   -0.000249321
 -------------------------------------------------------------------
 Cartesian Forces:  Max     0.038296737 RMS     0.008356888

 GradGradGradGradGradGradGradGradGradGradGradGradGradGradGradGradGradGrad
 Berny optimization.
 Internal  Forces:  Max     0.023420453 RMS     0.003670939
 Search for a local minimum.
 Step number   1 out of a maximum of  149
 All quantities printed in internal units (Hartrees-Bohrs-Radians)
 Mixed Optimization -- RFO/linear search
 Second derivative matrix not updated -- first step.
 ITU=  0
     Eigenvalues ---    0.00337   0.00582   0.00614   0.01316   0.01423
     Eigenvalues ---    0.01424   0.01425   0.01455   0.01860   0.02865
     Eigenvalues ---    0.03329   0.04277   0.04641   0.04678   0.04843
     Eigenvalues ---    0.04910   0.05220   0.05570   0.05804   0.05997
     Eigenvalues ---    0.06281   0.06693   0.06961   0.08026   0.08493
     Eigenvalues ---    0.09261   0.10113   0.10581   0.11289   0.11650
     Eigenvalues ---    0.11743   0.14079   0.14095   0.16000   0.16000
     Eigenvalues ---    0.16000   0.16000   0.16000   0.16000   0.16387
     Eigenvalues ---    0.17395   0.18670   0.19476   0.20731   0.22124
     Eigenvalues ---    0.25000   0.27350   0.28176   0.28854   0.28960
     Eigenvalues ---    0.29203   0.33016   0.33376   0.33580   0.33754
     Eigenvalues ---    0.33911   0.34167   0.34221   0.34237   0.34281
     Eigenvalues ---    0.34679   0.39572   0.40666   0.40728   0.41214
     Eigenvalues ---    0.42407   0.42427   0.42431   0.47792   0.53229
     Eigenvalues ---    0.53231   0.54316
 RFO step:  Lambda=-1.07863431D-02 EMin= 3.37303620D-03
 Linear search not attempted -- first point.
 Iteration  1 RMS(Cart)=  0.04801715 RMS(Int)=  0.00190319
 Iteration  2 RMS(Cart)=  0.00184361 RMS(Int)=  0.00038405
 Iteration  3 RMS(Cart)=  0.00000155 RMS(Int)=  0.00038405
 Iteration  4 RMS(Cart)=  0.00000000 RMS(Int)=  0.00038405
 Variable       Old X    -DE/DX   Delta X   Delta X   Delta X     New X
                                 (Linear)    (Quad)   (Total)
    R1        2.70659  -0.02342   0.00000  -0.05610  -0.05610   2.65048
    R2        2.62161   0.00448   0.00000   0.00916   0.00916   2.63077
    R3        2.69936  -0.00161   0.00000  -0.00381  -0.00381   2.69556
    R4        2.68408   0.00616   0.00000   0.01417   0.01417   2.69825
    R5        1.82445  -0.00003   0.00000  -0.00006  -0.00006   1.82439
    R6        2.68383  -0.00028   0.00000  -0.00064  -0.00064   2.68319
    R7        1.83441  -0.00425   0.00000  -0.00783  -0.00783   1.82657
    R8        2.68547  -0.00433   0.00000  -0.01142  -0.01170   2.67377
    R9        2.69942   0.01169   0.00000   0.03122   0.03124   2.73066
   R10        2.68378   0.00276   0.00000   0.00634   0.00634   2.69013
   R11        1.83438  -0.00740   0.00000  -0.01362  -0.01362   1.82077
   R12        2.90225   0.00026   0.00000   0.00000  -0.00004   2.90221
   R13        2.09023   0.00049   0.00000   0.00144   0.00144   2.09167
   R14        2.88595   0.00231   0.00000   0.00309   0.00309   2.88905
   R15        2.07747   0.00011   0.00000   0.00033   0.00033   2.07780
   R16        2.90237  -0.00175   0.00000  -0.00383  -0.00357   2.89880
   R17        2.08044   0.00042   0.00000   0.00120   0.00120   2.08165
   R18        2.89946   0.00204   0.00000   0.00741   0.00742   2.90688
   R19        2.07049   0.00648   0.00000   0.01838   0.01838   2.08887
   R20        2.89582  -0.00424   0.00000  -0.01400  -0.01400   2.88182
   R21        2.08396   0.00085   0.00000   0.00247   0.00247   2.08643
   R22        2.06933  -0.00159   0.00000  -0.00450  -0.00450   2.06483
   R23        2.06959   0.00134   0.00000   0.00381   0.00381   2.07340
   R24        2.07481   0.00030   0.00000   0.00087   0.00087   2.07567
   R25        2.06858   0.00014   0.00000   0.00041   0.00041   2.06899
   R26        2.06199   0.00038   0.00000   0.00106   0.00106   2.06304
    A1        2.00486  -0.00028   0.00000  -0.00109  -0.00109   2.00377
    A2        1.87586   0.00082   0.00000   0.00481   0.00481   1.88067
    A3        1.88882  -0.01152   0.00000  -0.06747  -0.06747   1.82135
    A4        1.95502  -0.00494   0.00000  -0.00742  -0.00785   1.94716
    A5        1.88067  -0.00277   0.00000  -0.01625  -0.01625   1.86442
    A6        1.90590  -0.00077   0.00000   0.00357   0.00380   1.90970
    A7        1.87482   0.00094   0.00000   0.00338   0.00332   1.87815
    A8        1.92614  -0.00030   0.00000  -0.00658  -0.00664   1.91950
    A9        1.93923   0.00160   0.00000   0.00669   0.00616   1.94539
   A10        1.89975   0.00014   0.00000  -0.00017  -0.00009   1.89966
   A11        1.91806  -0.00160   0.00000  -0.00689  -0.00663   1.91144
   A12        1.92613  -0.00137   0.00000  -0.00903  -0.00902   1.91710
   A13        1.89664   0.00270   0.00000   0.02234   0.02240   1.91904
   A14        1.92971  -0.00088   0.00000  -0.00850  -0.00863   1.92108
   A15        1.92972  -0.00110   0.00000  -0.00922  -0.00914   1.92058
   A16        1.88176   0.00028   0.00000  -0.00081  -0.00083   1.88093
   A17        1.89989   0.00033   0.00000   0.00494   0.00481   1.90471
   A18        1.88980  -0.00086   0.00000   0.00693   0.00726   1.89706
   A19        1.95017  -0.00487   0.00000  -0.02910  -0.02965   1.92052
   A20        1.91810   0.00140   0.00000  -0.00815  -0.00859   1.90950
   A21        1.91804   0.00769   0.00000   0.04354   0.04380   1.96184
   A22        1.89509  -0.00108   0.00000   0.00233   0.00237   1.89746
   A23        1.89200  -0.00214   0.00000  -0.01457  -0.01516   1.87684
   A24        1.94208  -0.00191   0.00000  -0.00713  -0.00658   1.93549
   A25        1.88248   0.01145   0.00000   0.08461   0.08471   1.96719
   A26        1.90746  -0.00011   0.00000   0.02861   0.02827   1.93573
   A27        1.93379  -0.00953   0.00000  -0.03792  -0.03887   1.89492
   A28        1.90756  -0.00056   0.00000  -0.04411  -0.04593   1.86163
   A29        1.88951   0.00091   0.00000  -0.02233  -0.02515   1.86436
   A30        1.87762   0.00769   0.00000   0.05868   0.05885   1.93648
   A31        1.91300  -0.00302   0.00000  -0.01948  -0.01962   1.89338
   A32        1.90198  -0.00194   0.00000  -0.00599  -0.00596   1.89603
   A33        1.99097  -0.00415   0.00000  -0.01561  -0.01545   1.97552
   A34        1.91021  -0.00121   0.00000  -0.01750  -0.01793   1.89228
   A35        1.86885   0.00250   0.00000  -0.00096  -0.00131   1.86753
   A36        1.99973  -0.00233   0.00000  -0.01163  -0.01165   1.98808
   A37        1.92613   0.00187   0.00000   0.00610   0.00597   1.93211
   A38        1.88234  -0.00164   0.00000  -0.01283  -0.01274   1.86960
   A39        1.89058  -0.00151   0.00000  -0.01191  -0.01196   1.87862
   A40        1.87539   0.00390   0.00000   0.02694   0.02698   1.90237
   A41        1.88606  -0.00013   0.00000   0.00492   0.00496   1.89102
   A42        1.92987   0.00002   0.00000  -0.00006  -0.00006   1.92981
   A43        1.93886   0.00013   0.00000   0.00072   0.00072   1.93958
   A44        1.86041   0.00032   0.00000   0.00209   0.00209   1.86250
   A45        1.91184  -0.00025   0.00000  -0.00182  -0.00182   1.91002
   A46        1.91008  -0.00014   0.00000  -0.00076  -0.00076   1.90931
   A47        1.91203  -0.00007   0.00000  -0.00008  -0.00009   1.91194
    D1       -1.28000   0.00087   0.00000   0.00573   0.00552  -1.27448
    D2        2.89842  -0.00116   0.00000  -0.00634  -0.00610   2.89231
    D3        0.80761   0.00038   0.00000   0.00373   0.00371   0.81131
    D4       -0.97745   0.00006   0.00000  -0.00027  -0.00027  -0.97772
    D5        1.14918  -0.00015   0.00000  -0.00214  -0.00214   1.14705
    D6       -3.05207   0.00003   0.00000  -0.00056  -0.00056  -3.05263
    D7        1.02844  -0.00028   0.00000  -0.00623  -0.00620   1.02224
    D8       -3.13609  -0.00075   0.00000  -0.00891  -0.00885   3.13825
    D9       -1.05192   0.00080   0.00000   0.00592   0.00583  -1.04609
   D10        3.11051   0.00037   0.00000  -0.06525  -0.06528   3.04524
   D11        0.99579  -0.00559   0.00000  -0.10586  -0.10577   0.89002
   D12       -1.10529  -0.00064   0.00000  -0.06301  -0.06308  -1.16837
   D13        3.11097   0.00113   0.00000   0.01729   0.01707   3.12804
   D14       -1.10731   0.00276   0.00000   0.02771   0.02736  -1.07996
   D15        1.00714   0.00187   0.00000   0.02325   0.02293   1.03007
   D16        1.14031   0.00193   0.00000  -0.03167  -0.03207   1.10824
   D17       -2.96910  -0.00010   0.00000  -0.02503  -0.02543  -2.99453
   D18       -0.92915   0.00009   0.00000  -0.04065  -0.04112  -0.97028
   D19       -1.62777   0.00452   0.00000   0.13250   0.13255  -1.49522
   D20        0.51159   0.00229   0.00000   0.11300   0.11299   0.62458
   D21        2.56824   0.00221   0.00000   0.11478   0.11474   2.68298
   D22       -1.15760   0.00214   0.00000   0.03421   0.03417  -1.12343
   D23        3.02669   0.00037   0.00000   0.01815   0.01799   3.04468
   D24        0.95164   0.00043   0.00000   0.01794   0.01788   0.96952
   D25        3.04202   0.00158   0.00000   0.02391   0.02383   3.06584
   D26        0.94312  -0.00019   0.00000   0.00785   0.00765   0.95076
   D27       -1.13193  -0.00013   0.00000   0.00764   0.00754  -1.12439
   D28        0.93835   0.00143   0.00000   0.02435   0.02437   0.96272
   D29       -1.16055  -0.00034   0.00000   0.00828   0.00819  -1.15236
   D30        3.04759  -0.00028   0.00000   0.00807   0.00808   3.05566
   D31        1.17315   0.00140   0.00000  -0.00757  -0.00772   1.16542
   D32       -2.97556  -0.00038   0.00000  -0.01200  -0.01192  -2.98748
   D33       -0.90880   0.00083   0.00000  -0.00309  -0.00293  -0.91173
   D34       -2.99358   0.00076   0.00000  -0.01009  -0.01026  -3.00385
   D35       -0.85910  -0.00102   0.00000  -0.01451  -0.01446  -0.87356
   D36        1.20765   0.00019   0.00000  -0.00561  -0.00547   1.20219
   D37       -0.92957   0.00066   0.00000  -0.01349  -0.01374  -0.94331
   D38        1.20492  -0.00112   0.00000  -0.01792  -0.01794   1.18697
   D39       -3.01152   0.00009   0.00000  -0.00901  -0.00895  -3.02046
   D40       -1.16375   0.00480   0.00000   0.05931   0.05903  -1.10472
   D41        3.02515  -0.00201   0.00000  -0.01734  -0.01700   3.00815
   D42        0.94443   0.00307   0.00000   0.06130   0.06035   1.00478
   D43        3.02117   0.00389   0.00000   0.04027   0.04037   3.06154
   D44        0.92689  -0.00292   0.00000  -0.03638  -0.03566   0.89123
   D45       -1.15383   0.00215   0.00000   0.04225   0.04169  -1.11214
   D46        0.95251   0.00204   0.00000   0.02104   0.02124   0.97375
   D47       -1.14176  -0.00477   0.00000  -0.05561  -0.05479  -1.19656
   D48        3.06070   0.00030   0.00000   0.02303   0.02257   3.08326
   D49        3.11042   0.00274   0.00000   0.03405   0.03432  -3.13844
   D50        0.98446   0.00373   0.00000   0.02662   0.02697   1.01142
   D51       -1.10859   0.00415   0.00000   0.05081   0.05091  -1.05768
   D52       -1.04323   0.00193   0.00000   0.05677   0.05616  -0.98707
   D53        3.11399   0.00292   0.00000   0.04934   0.04881  -3.12039
   D54        1.02094   0.00335   0.00000   0.07353   0.07275   1.09369
   D55        1.04833  -0.00388   0.00000  -0.03398  -0.03381   1.01452
   D56       -1.07764  -0.00289   0.00000  -0.04141  -0.04116  -1.11880
   D57        3.11249  -0.00247   0.00000  -0.01723  -0.01722   3.09528
   D58       -1.38299  -0.00177   0.00000   0.01459   0.01467  -1.36831
   D59        2.74171  -0.00142   0.00000   0.02398   0.02395   2.76566
   D60        0.70807  -0.00254   0.00000   0.01016   0.01016   0.71823
   D61        0.72336   0.00311   0.00000   0.06539   0.06551   0.78887
   D62       -1.43512   0.00346   0.00000   0.07477   0.07478  -1.36034
   D63        2.81442   0.00234   0.00000   0.06096   0.06099   2.87541
   D64        2.83951   0.00074   0.00000   0.03275   0.03275   2.87226
   D65        0.68102   0.00109   0.00000   0.04213   0.04202   0.72304
   D66       -1.35262  -0.00003   0.00000   0.02832   0.02823  -1.32439
         Item               Value     Threshold  Converged?
 Maximum Force            0.023420     0.000450     NO 
 RMS     Force            0.003671     0.000300     NO 
 Maximum Displacement     0.253445     0.001800     NO 
 RMS     Displacement     0.048356     0.001200     NO 
 Predicted change in Energy=-6.191536D-03
 GradGradGradGradGradGradGradGradGradGradGradGradGradGradGradGradGradGrad

                          Input orientation:                          
 ---------------------------------------------------------------------
 Center     Atomic      Atomic             Coordinates (Angstroms)
 Number     Number       Type             X           Y           Z
 ---------------------------------------------------------------------
      1          8           0        0.224481    0.018427   -0.375171
      2          8           0       -3.679775    1.493512   -3.968510
      3          8           0       -0.970392    1.888885   -4.666401
      4          8           0        0.762047    2.021397   -2.369828
      5          8           0       -3.077430    0.545427   -1.971513
      6          8           0       -2.719033    0.423980    1.072334
      7          6           0       -2.663521    0.820108   -3.296338
      8          6           0       -1.416700    1.716468   -3.321097
      9          6           0       -0.304845    1.090828   -2.478699
     10          6           0       -0.789520    0.681146   -1.082152
     11          6           0       -2.061090   -0.170841   -1.235278
     12          6           0       -2.652023   -0.612910    0.099258
     13          1           0       -1.695126    2.281612   -5.168962
     14          1           0        1.383430    1.603180   -1.758882
     15          1           0       -1.863558    0.446654    1.515047
     16          1           0       -2.441477   -0.136446   -3.807077
     17          1           0       -1.693510    2.688404   -2.887892
     18          1           0        0.053417    0.180939   -2.985832
     19          1           0       -1.088059    1.611223   -0.564754
     20          1           0       -1.801638   -1.087700   -1.793019
     21          1           0       -2.051874   -1.448942    0.466376
     22          1           0       -3.676838   -0.969029   -0.064355
     23          6           0       -4.802869    0.686689   -4.318355
     24          1           0       -4.485658   -0.177104   -4.918119
     25          1           0       -5.330491    0.336153   -3.425349
     26          1           0       -5.468498    1.315798   -4.912496
 ---------------------------------------------------------------------
                    Distance matrix (angstroms):
                    1          2          3          4          5
     1  O    0.000000
     2  O    5.507375   0.000000
     3  O    4.831252   2.825620   0.000000
     4  O    2.877416   4.750182   2.879783   0.000000
     5  O    3.705220   2.291218   3.675175   4.132642   0.000000
     6  O    3.305151   5.241854   6.175498   5.149577   3.067279
     7  C    4.185269   1.392142   2.426117   3.746470   1.414897
     8  C    3.775619   2.364395   1.427853   2.396838   2.439414
     9  C    2.419723   3.711043   2.421960   1.419884   2.870876
    10  C    1.402575   4.164682   3.786580   2.421103   2.458438
    11  C    2.449376   3.586191   4.147855   3.750095   1.445001
    12  C    2.982942   4.694680   5.639004   4.969087   2.410562
    13  H    5.638026   2.449697   0.965423   3.733706   3.892144
    14  H    2.401929   5.525444   3.751770   0.966580   4.589480
    15  H    2.848896   5.870600   6.409998   4.946298   3.693148
    16  H    4.348482   2.053340   2.646601   4.121230   2.058805
    17  H    4.137782   2.557489   2.079718   2.596738   2.710598
    18  H    2.621302   4.077404   2.605682   2.066132   3.311178
    19  H    2.072609   4.279766   4.112719   2.617142   2.659415
    20  H    2.709054   3.863006   4.219877   4.070832   2.080050
    21  H    2.836048   5.565637   6.217403   5.292018   3.312488
    22  H    4.036331   4.615901   6.055688   5.827654   2.508011
    23  C    6.424137   1.426428   4.031662   6.045370   2.916293
    24  H    6.546909   2.083786   4.085189   6.234228   3.344793
    25  H    6.345255   2.087910   4.791832   6.408837   2.689557
    26  H    7.394627   2.030326   4.541140   6.766293   3.867823
                    6          7          8          9         10
     6  O    0.000000
     7  C    4.386946   0.000000
     8  C    4.761180   1.535786   0.000000
     9  C    4.345437   2.511011   1.528817   0.000000
    10  C    2.903613   2.904103   2.545215   1.533978   0.000000
    11  C    2.472200   2.364926   2.885795   2.494454   1.538252
    12  C    1.423555   3.685613   4.318663   3.880441   2.557191
    13  H    6.591886   2.565249   1.952310   3.253977   4.481476
    14  H    5.122158   4.399408   3.208438   1.905496   2.455569
    15  H    0.963508   4.891711   5.019999   4.335268   2.820281
    16  H    4.919325   1.106866   2.172472   2.799283   3.289777
    17  H    4.675757   2.144361   1.099523   2.155940   2.847276
    18  H    4.920799   2.808328   2.152091   1.101560   2.141202
    19  H    2.598014   3.251077   2.777860   2.132468   1.105383
    20  H    3.367052   2.577313   3.216607   2.730665   2.158363
    21  H    2.078491   4.436296   4.976768   4.263333   2.920403
    22  H    2.037137   3.830606   4.788161   4.630594   3.477872
    23  C    5.785406   2.374685   3.677107   4.876462   5.155581
    24  H    6.274376   2.635296   3.943932   5.003760   5.395616
    25  H    5.201594   2.713593   4.151374   5.169410   5.121525
    26  H    6.646283   3.274991   4.371516   5.712906   6.080062
                   11         12         13         14         15
    11  C    0.000000
    12  C    1.524996   0.000000
    13  H    4.649981   6.086711   0.000000
    14  H    3.909736   4.964737   4.643967   0.000000
    15  H    2.825704   1.936185   6.933355   4.753850   0.000000
    16  H    2.600005   3.940913   2.873808   4.674539   5.385071
    17  H    3.322880   4.554173   2.317059   3.452526   4.943706
    18  H    2.767550   4.179400   3.498040   2.301545   4.899317
    19  H    2.138258   2.798868   4.692194   2.744862   2.506629
    20  H    1.104093   2.128213   4.770807   4.169732   3.647105
    21  H    2.128204   1.092659   6.767668   5.105736   2.174502
    22  H    2.149141   1.097195   6.367956   5.924018   2.790458
    23  C    4.214033   5.082362   3.595188   6.757304   6.536493
    24  H    4.409295   5.359684   3.727636   6.899013   6.974963
    25  H    3.967674   4.527446   4.476703   7.032724   6.036501
    26  H    5.229001   6.063837   3.903448   7.548297   7.420533
                   16         17         18         19         20
    16  H    0.000000
    17  H    3.063354   0.000000
    18  H    2.645690   3.057569   0.000000
    19  H    3.924124   2.631323   3.034848   0.000000
    20  H    2.317478   3.933117   2.544304   3.049921   0.000000
    21  H    4.487408   5.338275   4.359645   3.369982   2.301734
    22  H    4.028310   5.028198   4.875681   3.689157   2.553182
    23  C    2.552476   3.964998   5.061119   5.361352   4.305017
    24  H    2.326960   4.486541   4.946224   5.804617   4.218933
    25  H    2.952198   4.364583   5.404048   5.273238   4.140611
    26  H    3.534660   4.498178   5.957473   6.178865   5.380873
                   21         22         23         24         25
    21  H    0.000000
    22  H    1.775528   0.000000
    23  C    5.917985   4.701688   0.000000
    24  H    6.044308   4.984011   1.098399   0.000000
    25  H    5.392719   3.966655   1.094861   1.790402   0.000000
    26  H    6.946177   5.651102   1.091715   1.787390   1.786157
                   26
    26  H    0.000000
 Symmetry turned off by external request.
 Stoichiometry    C7H13O6(1-)
 Framework group  C1[X(C7H13O6)]
 Deg. of freedom    72
 Full point group                 C1      NOp   1
 Rotational constants (GHZ):      0.9461444      0.6782972      0.4262482
 Standard basis: 6-31+G(2df,p) (6D, 7F)
 Integral buffers will be    131072 words long.
 Raffenetti 2 integral format.
 Two-electron integral symmetry is turned off.
   481 basis functions,   715 primitive gaussians,   520 cartesian basis functions
    52 alpha electrons       52 beta electrons
       nuclear repulsion energy       918.9984141475 Hartrees.
 NAtoms=   26 NActive=   26 NUniq=   26 SFac= 1.00D+00 NAtFMM=   50 NAOKFM=F Big=F
 ------------------------------------------------------------------------------
 Polarizable Continuum Model (PCM)
 =================================
 Model                : PCM.
 Atomic radii         : UFF (Universal Force Field).
 Polarization charges : Total charges.
 Charge compensation  : None.
 Solution method      : Matrix inversion.
 Cavity type          : Scaled VdW (van der Waals Surface) (Alpha=1.100).
 Cavity algorithm     : GePol (No added spheres)
                        Default sphere list used, NSphG=   26.
                        Lebedev-Laikov grids with approx.  5.0 points / Ang**2.
                        Smoothing algorithm: Karplus/York (Gamma=1.0000).
                        Polarization charges: spherical gaussians, with
                                              point-specific exponents (IZeta= 3).
                        Self-potential: point-specific (ISelfS= 7).
                        Self-field    : sphere-specific E.n sum rule (ISelfD= 2).
 1st derivatives      : Analytical E(r).r(x)/FMM algorithm (CHGder, D1EAlg=3).
                        Cavity 1st derivative terms included.
 Solvent              : TetraHydroFuran, Eps=   7.425700 Eps(inf)=   1.974025
 ------------------------------------------------------------------------------
 One-electron integrals computed using PRISM.
 NBasis=   481 RedAO= T  NBF=   481
 NBsUse=   481 1.00D-06 NBFU=   481
 Initial guess read from the read-write file.
 B after Tr=     0.000000    0.000000    0.000000
         Rot=    1.000000    0.000000    0.000000    0.000000 Ang=   0.00 deg.
 Harris functional with IExCor=  402 diagonalized for initial guess.
 ExpMin= 4.38D-02 ExpMax= 5.48D+03 ExpMxC= 8.25D+02 IAcc=2 IRadAn=         0 AccDes= 0.00D+00
 HarFok:  IExCor=  402 AccDes= 0.00D+00 IRadAn=         0 IDoV= 1
 ScaDFX=  1.000000  1.000000  1.000000  1.000000
 FoFCou: FMM=F IPFlag=           0 FMFlag=      100000 FMFlg1=           0
         NFxFlg=           0 DoJE=T BraDBF=F KetDBF=T FulRan=T
         Omega=  0.000000  0.000000  1.000000  0.000000  0.000000 ICntrl=     500 IOpCl=  0
         NMat0=    1 NMatS0=    1 NMatT0=    0 NMatD0=    1 NMtDS0=    0 NMtDT0=    0
         I1Cent=           4 NGrid=           0.
 Symmetry not used in FoFCou.
 Requested convergence on RMS density matrix=1.00D-08 within 128 cycles.
 Requested convergence on MAX density matrix=1.00D-06.
 Requested convergence on             energy=1.00D-06.
 No special actions if energy rises.
 Error on total polarization charges =  0.01982
 SCF Done:  E(RB3LYP) =  -726.073463741     A.U. after   13 cycles
             Convg  =    0.2141D-08             -V/T =  2.0070
 D1PCM: PCM CHGder 1st derivatives, ID1Alg=3 FixD1E=F DoIter=F DoCFld=F I1PDM=0.
 Calling FoFJK, ICntrl=      2127 FMM=F ISym2X=0 I1Cent= 0 IOpClX= 0 NMat=1 NMatS=1 NMatT=0.
 -------------------------------------------------------------------
 Center     Atomic                   Forces (Hartrees/Bohr)
 Number     Number              X              Y              Z
 -------------------------------------------------------------------
      1        8          -0.012725876    0.009639135   -0.010053270
      2        8          -0.002112765    0.000649550   -0.001299695
      3        8           0.001557652    0.000267364   -0.001038987
      4        8           0.004505718    0.002126319   -0.003997901
      5        8           0.000532575    0.000231206   -0.001760347
      6        8          -0.002659607   -0.001677457    0.004856468
      7        6           0.002664113   -0.000833824    0.003634535
      8        6           0.000350708   -0.000260573    0.002027711
      9        6          -0.006937402    0.001839482   -0.005724181
     10        6           0.017759570   -0.013246181    0.014138537
     11        6          -0.000787935   -0.001428855    0.001126757
     12        6          -0.000813842   -0.001180631   -0.004660319
     13        1          -0.000373627   -0.000399885    0.000924083
     14        1          -0.000524406   -0.001154576    0.004724371
     15        1           0.002221376    0.002634411   -0.002200915
     16        1          -0.000132202   -0.000096301   -0.000594416
     17        1           0.000107364   -0.000038117   -0.000046728
     18        1          -0.000071779   -0.000661157   -0.001374991
     19        1          -0.002772793    0.003577439   -0.000526924
     20        1          -0.000906348   -0.000368005   -0.000612358
     21        1          -0.000053411   -0.000599635    0.001688097
     22        1           0.000643663    0.000754758    0.000385469
     23        6           0.001022008    0.000655820    0.000469640
     24        1          -0.000124365   -0.000188605   -0.000069488
     25        1          -0.000243070   -0.000171435    0.000004344
     26        1          -0.000125318   -0.000070248   -0.000019492
 -------------------------------------------------------------------
 Cartesian Forces:  Max     0.017759570 RMS     0.004152040

 GradGradGradGradGradGradGradGradGradGradGradGradGradGradGradGradGradGrad
 Berny optimization.
 Using GEDIIS/GDIIS optimizer.
 Internal  Forces:  Max     0.018819269 RMS     0.001914884
 Search for a local minimum.
 Step number   2 out of a maximum of  149
 All quantities printed in internal units (Hartrees-Bohrs-Radians)
 Mixed Optimization -- RFO/linear search
 Update second derivatives using D2CorX and points    1    2
 DE= -7.03D-03 DEPred=-6.19D-03 R= 1.14D+00
 SS=  1.41D+00  RLast= 3.97D-01 DXNew= 5.0454D-01 1.1906D+00
 Trust test= 1.14D+00 RLast= 3.97D-01 DXMaxT set to 5.05D-01
 ITU=  1  0
 Use linear search instead of GDIIS.
     Eigenvalues ---    0.00343   0.00564   0.00626   0.01204   0.01316
     Eigenvalues ---    0.01401   0.01423   0.01431   0.01860   0.02820
     Eigenvalues ---    0.03295   0.04351   0.04687   0.04719   0.04785
     Eigenvalues ---    0.04843   0.05277   0.05596   0.05798   0.05942
     Eigenvalues ---    0.06287   0.06740   0.07079   0.07757   0.08060
     Eigenvalues ---    0.09241   0.10112   0.10565   0.10904   0.11650
     Eigenvalues ---    0.11738   0.13995   0.14890   0.15390   0.16000
     Eigenvalues ---    0.16000   0.16000   0.16000   0.16126   0.16840
     Eigenvalues ---    0.17394   0.19111   0.19679   0.21018   0.22167
     Eigenvalues ---    0.25000   0.27308   0.28371   0.28896   0.29018
     Eigenvalues ---    0.29514   0.32997   0.33212   0.33422   0.33612
     Eigenvalues ---    0.33755   0.33912   0.34227   0.34281   0.34336
     Eigenvalues ---    0.34679   0.35982   0.40459   0.41195   0.41309
     Eigenvalues ---    0.42365   0.42427   0.43447   0.47737   0.53199
     Eigenvalues ---    0.54305   0.54679
 RFO step:  Lambda=-4.21417801D-03 EMin= 3.42679966D-03
 Quartic linear search produced a step of  0.44109.
 Iteration  1 RMS(Cart)=  0.05141542 RMS(Int)=  0.00437407
 Iteration  2 RMS(Cart)=  0.00417384 RMS(Int)=  0.00032236
 Iteration  3 RMS(Cart)=  0.00002646 RMS(Int)=  0.00032153
 Iteration  4 RMS(Cart)=  0.00000000 RMS(Int)=  0.00032153
 Variable       Old X    -DE/DX   Delta X   Delta X   Delta X     New X
                                 (Linear)    (Quad)   (Total)
    R1        2.65048  -0.01882  -0.02475  -0.05721  -0.08196   2.56853
    R2        2.63077   0.00205   0.00404   0.00488   0.00892   2.63968
    R3        2.69556  -0.00070  -0.00168  -0.00192  -0.00360   2.69196
    R4        2.69825   0.00045   0.00625  -0.00014   0.00611   2.70436
    R5        1.82439  -0.00038  -0.00003  -0.00095  -0.00098   1.82341
    R6        2.68319   0.00368  -0.00028   0.01201   0.01172   2.69491
    R7        1.82657   0.00317  -0.00346   0.00907   0.00561   1.83218
    R8        2.67377  -0.00052  -0.00516   0.00068  -0.00459   2.66918
    R9        2.73066  -0.00016   0.01378  -0.00195   0.01189   2.74254
   R10        2.69013   0.00249   0.00280   0.00736   0.01015   2.70028
   R11        1.82077   0.00100  -0.00601   0.00409  -0.00192   1.81885
   R12        2.90221  -0.00017  -0.00002   0.00041   0.00035   2.90256
   R13        2.09167   0.00033   0.00064   0.00119   0.00183   2.09350
   R14        2.88905  -0.00343   0.00136  -0.01887  -0.01755   2.87149
   R15        2.07780  -0.00007   0.00014  -0.00032  -0.00017   2.07762
   R16        2.89880   0.00299  -0.00157   0.01287   0.01141   2.91020
   R17        2.08165   0.00115   0.00053   0.00455   0.00508   2.08672
   R18        2.90688   0.00193   0.00327   0.00720   0.01051   2.91739
   R19        2.08887   0.00351   0.00811   0.01198   0.02008   2.10896
   R20        2.88182   0.00036  -0.00618   0.00330  -0.00287   2.87895
[...]
 Alpha  occ. eigenvalues --   -0.40589  -0.39360  -0.37299  -0.36530  -0.35015
 Alpha  occ. eigenvalues --   -0.33662  -0.33600  -0.32585  -0.30482  -0.29879
 Alpha  occ. eigenvalues --   -0.27914  -0.27780  -0.26218  -0.25503  -0.24473
 Alpha  occ. eigenvalues --   -0.17455  -0.16919
 Alpha virt. eigenvalues --    0.02271   0.02507   0.02573   0.03390   0.04610
 Alpha virt. eigenvalues --    0.05296   0.05821   0.06376   0.06782   0.07302
 Alpha virt. eigenvalues --    0.08621   0.09268   0.09967   0.10279   0.10737
 Alpha virt. eigenvalues --    0.11757   0.12488   0.12997   0.13706   0.14710
 Alpha virt. eigenvalues --    0.14980   0.15494   0.16103   0.16449   0.17197
 Alpha virt. eigenvalues --    0.18293   0.18633   0.19533   0.20082   0.20332
 Alpha virt. eigenvalues --    0.20890   0.21824   0.22034   0.22551   0.22739
 Alpha virt. eigenvalues --    0.23567   0.24121   0.24629   0.24986   0.26125
 Alpha virt. eigenvalues --    0.26386   0.26871   0.27499   0.27908   0.28054
 Alpha virt. eigenvalues --    0.28400   0.28860   0.29771   0.30165   0.30486
 Alpha virt. eigenvalues --    0.30999   0.31985   0.32301   0.32483   0.33273
 Alpha virt. eigenvalues --    0.33697   0.34134   0.34238   0.34863   0.35277
 Alpha virt. eigenvalues --    0.35431   0.36483   0.36804   0.37817   0.37939
 Alpha virt. eigenvalues --    0.38789   0.39754   0.40776   0.41694   0.42073
 Alpha virt. eigenvalues --    0.42993   0.43397   0.43809   0.45135   0.45851
 Alpha virt. eigenvalues --    0.47661   0.49437   0.50132   0.58222   0.58961
 Alpha virt. eigenvalues --    0.59829   0.62415   0.63475   0.65287   0.65689
 Alpha virt. eigenvalues --    0.67270   0.68670   0.70145   0.71652   0.73390
 Alpha virt. eigenvalues --    0.73792   0.74036   0.76170   0.76662   0.77400
 Alpha virt. eigenvalues --    0.79774   0.80945   0.81629   0.82146   0.83772
 Alpha virt. eigenvalues --    0.84400   0.85140   0.87621   0.90544   0.90868
 Alpha virt. eigenvalues --    0.91723   0.93117   0.93878   0.94573   0.95707
 Alpha virt. eigenvalues --    0.96203   0.96753   0.97437   0.98715   0.99331
 Alpha virt. eigenvalues --    1.00554   1.01895   1.03256   1.04282   1.05321
 Alpha virt. eigenvalues --    1.06739   1.07653   1.08490   1.09629   1.10313
 Alpha virt. eigenvalues --    1.12108   1.12790   1.13735   1.16264   1.17120
 Alpha virt. eigenvalues --    1.17970   1.19840   1.20862   1.21922   1.22392
 Alpha virt. eigenvalues --    1.23333   1.24067   1.25594   1.25870   1.26755
 Alpha virt. eigenvalues --    1.27042   1.28188   1.28611   1.29709   1.31262
 Alpha virt. eigenvalues --    1.32382   1.33027   1.34393   1.35238   1.36190
 Alpha virt. eigenvalues --    1.37024   1.37813   1.39559   1.40649   1.41813
 Alpha virt. eigenvalues --    1.43145   1.43880   1.44841   1.47272   1.48635
 Alpha virt. eigenvalues --    1.49448   1.51977   1.52791   1.54610   1.55398
 Alpha virt. eigenvalues --    1.55771   1.58371   1.59233   1.61147   1.61991
 Alpha virt. eigenvalues --    1.64238   1.65503   1.66944   1.67848   1.68572
 Alpha virt. eigenvalues --    1.69573   1.71719   1.73056   1.74499   1.75940
 Alpha virt. eigenvalues --    1.78148   1.80480   1.83459   1.83758   1.85276
 Alpha virt. eigenvalues --    1.86786   1.89077   1.92269   1.92849   1.93602
 Alpha virt. eigenvalues --    1.94937   1.96574   1.98034   1.99177   2.01534
 Alpha virt. eigenvalues --    2.02052   2.03265   2.06320   2.07425   2.11415
 Alpha virt. eigenvalues --    2.12931   2.15580   2.18662   2.23153   2.24964
 Alpha virt. eigenvalues --    2.26225   2.28534   2.31643   2.35153   2.37996
 Alpha virt. eigenvalues --    2.38277   2.40352   2.44089   2.45756   2.50098
 Alpha virt. eigenvalues --    2.51683   2.55777   2.56526   2.61194   2.62187
 Alpha virt. eigenvalues --    2.63552   2.65801   2.67933   2.69940   2.73986
 Alpha virt. eigenvalues --    2.76839   2.78185   2.79220   2.80110   2.84462
 Alpha virt. eigenvalues --    2.85309   2.86093   2.87978   2.90440   2.92285
 Alpha virt. eigenvalues --    2.93434   2.93947   2.95963   2.97459   2.98170
 Alpha virt. eigenvalues --    2.99228   3.01694   3.02235   3.03221   3.05438
 Alpha virt. eigenvalues --    3.05784   3.07358   3.10812   3.13705   3.14328
 Alpha virt. eigenvalues --    3.16511   3.20726   3.24066   3.24723   3.26841
 Alpha virt. eigenvalues --    3.29087   3.30690   3.32351   3.34021   3.35364
 Alpha virt. eigenvalues --    3.38355   3.39273   3.42528   3.43980   3.44646
 Alpha virt. eigenvalues --    3.48172   3.49008   3.51477   3.54626   3.57027
 Alpha virt. eigenvalues --    3.57927   3.62145   3.64175   3.67329   3.68192
 Alpha virt. eigenvalues --    3.70003   3.71381   3.72499   3.74479   3.76374
 Alpha virt. eigenvalues --    3.78086   3.82234   3.86725   3.89149   3.89573
 Alpha virt. eigenvalues --    3.91864   3.94974   3.98895   4.01171   4.03786
 Alpha virt. eigenvalues --    4.06325   4.09653   4.19394   4.21666   4.22248
 Alpha virt. eigenvalues --    4.25495   4.26111   4.28548   4.29436   4.32423
 Alpha virt. eigenvalues --    4.34647   4.36292   4.37114   4.38329   4.38386
 Alpha virt. eigenvalues --    4.39900   4.42466   4.43333   4.44739   4.45869
 Alpha virt. eigenvalues --    4.47317   4.49120   4.49808   4.50569   4.51924
 Alpha virt. eigenvalues --    4.53096   4.55276   4.55827   4.56589   4.57574
 Alpha virt. eigenvalues --    4.60176   4.60606   4.62063   4.63617   4.64504
 Alpha virt. eigenvalues --    4.66336   4.66975   4.68920   4.69553   4.71024
 Alpha virt. eigenvalues --    4.71589   4.72853   4.73931   4.74698   4.76290
 Alpha virt. eigenvalues --    4.77506   4.77928   4.78072   4.79330   4.81080
 Alpha virt. eigenvalues --    4.83373   4.84962   4.87252   4.87981   4.89288
 Alpha virt. eigenvalues --    4.90551   4.93466   4.95616   4.96158   4.98468
 Alpha virt. eigenvalues --    5.00911   5.02338   5.03668   5.08973   5.10702
 Alpha virt. eigenvalues --    5.10884   5.12811   5.14050   5.18649   5.20361
 Alpha virt. eigenvalues --    5.25251   5.26007   5.27327   5.32463   5.34700
 Alpha virt. eigenvalues --    5.39289   5.42788   5.43828   5.45646   5.46258
 Alpha virt. eigenvalues --    5.47295   5.47911   5.48537   5.50435   5.52167
 Alpha virt. eigenvalues --    5.52403   5.54499   5.54927   5.58975   5.59568
 Alpha virt. eigenvalues --    5.63821   5.66586   5.68884   5.72949   5.73994
 Alpha virt. eigenvalues --    5.78483   5.84165   5.88783   5.91625   5.92211
 Alpha virt. eigenvalues --    5.96836   5.97165   6.01608   6.03695   6.06416
 Alpha virt. eigenvalues --    6.08310   6.09325   6.09729   6.12572   6.14790
 Alpha virt. eigenvalues --    6.17407   6.20563   6.22350   6.23077   6.26935
 Alpha virt. eigenvalues --    6.29823   6.33727   6.49425   6.94296   6.98562
 Alpha virt. eigenvalues --    7.10742   7.18601   7.28427   7.31972   7.45712
 Alpha virt. eigenvalues --    7.95536  11.91954  12.04776  12.24319  12.50050
 Alpha virt. eigenvalues --   12.81202  12.95452  13.26071  13.33714  13.46666
 Alpha virt. eigenvalues --   13.51356  13.61110  13.73586  14.04284
          Condensed to atoms (all electrons):
              1          2          3          4          5          6
     1  O    8.773169  -0.000062  -0.000996  -0.092916   0.004422  -0.013298
     2  O   -0.000062   7.866589  -0.022124   0.000531  -0.025600   0.000097
     3  O   -0.000996  -0.022124   8.147299   0.010043   0.001523  -0.000037
     4  O   -0.092916   0.000531   0.010043   8.235216  -0.000902  -0.000070
     5  O    0.004422  -0.025600   0.001523  -0.000902   7.973257  -0.013084
     6  O   -0.013298   0.000097  -0.000037  -0.000070  -0.013084   8.071480
     7  C   -0.022598   0.295917   0.053331   0.033837   0.175677   0.017288
     8  C    0.034486   0.007308   0.139500  -0.189708  -0.035766  -0.009048
     9  C   -0.020177  -0.004780  -0.131839   0.268114  -0.030646  -0.002627
    10  C    0.224644  -0.015825   0.060710   0.083467   0.020813  -0.023685
    11  C   -0.133044   0.002666  -0.019939  -0.051975   0.183883   0.061384
    12  C    0.037829   0.008535   0.004506   0.008068  -0.060794   0.148362
    13  H    0.000015   0.009939   0.260646  -0.000710   0.000083   0.000002
    14  H    0.055603  -0.000056  -0.000793   0.232186  -0.000347   0.000224
    15  H    0.003805   0.000000   0.000001   0.000100   0.000071   0.286078
    16  H    0.000095  -0.034687   0.002770   0.000590  -0.056657  -0.000323
    17  H    0.000810  -0.000703  -0.030751   0.005016   0.000796  -0.000251
    18  H   -0.003539   0.000798   0.004816  -0.037290   0.001721   0.000061
    19  H   -0.080639  -0.001278   0.000823  -0.001252  -0.001690   0.005267
    20  H   -0.003559  -0.001033   0.000147   0.000800  -0.043683   0.006390
    21  H   -0.001279  -0.000013   0.000002  -0.000017   0.000188  -0.031567
    22  H   -0.000191   0.000132  -0.000003  -0.000001   0.000270  -0.046433
    23  C   -0.000467   0.138577  -0.001709   0.000384   0.030808   0.001577
    24  H    0.000001  -0.048054   0.000314   0.000004  -0.000603   0.000004
    25  H   -0.000003  -0.030375  -0.000257  -0.000003  -0.001243  -0.000091
    26  H    0.000000  -0.041839   0.000201   0.000000  -0.000068   0.000000
              7          8          9         10         11         12
     1  O   -0.022598   0.034486  -0.020177   0.224644  -0.133044   0.037829
     2  O    0.295917   0.007308  -0.004780  -0.015825   0.002666   0.008535
     3  O    0.053331   0.139500  -0.131839   0.060710  -0.019939   0.004506
     4  O    0.033837  -0.189708   0.268114   0.083467  -0.051975   0.008068
     5  O    0.175677  -0.035766  -0.030646   0.020813   0.183883  -0.060794
     6  O    0.017288  -0.009048  -0.002627  -0.023685   0.061384   0.148362
     7  C    7.075083  -1.317109  -0.298269   1.347535  -1.227256  -0.441662
     8  C   -1.317109   7.343238   0.245620  -1.152187   0.658510   0.185059
     9  C   -0.298269   0.245620   6.166229  -0.897409   0.681521  -0.064417
    10  C    1.347535  -1.152187  -0.897409   8.745130  -2.292809  -0.388474
    11  C   -1.227256   0.658510   0.681521  -2.292809   8.342436  -0.364296
    12  C   -0.441662   0.185059  -0.064417  -0.388474  -0.364296   6.498281
    13  H   -0.059040   0.046491   0.010718  -0.010339   0.002670  -0.000499
    14  H   -0.004813   0.026465   0.014141  -0.100316   0.040985  -0.006153
    15  H   -0.003063   0.001419   0.003912   0.026833  -0.069841   0.012629
    16  H    0.286506   0.053217  -0.024484  -0.046982   0.077162   0.029610
    17  H   -0.109145   0.461598  -0.115655  -0.026921   0.070570   0.014598
    18  H    0.077995  -0.172155   0.337001   0.043522  -0.006355  -0.010540
    19  H    0.141512  -0.049965  -0.199610   0.709282  -0.215209  -0.111007
    20  H    0.116651  -0.056942  -0.056871   0.118304   0.203028  -0.034342
    21  H   -0.001281   0.002232  -0.009860  -0.032210  -0.070581   0.470629
    22  H   -0.015559   0.006483   0.005561   0.000561  -0.134754   0.504262
    23  C   -0.037274  -0.167568   0.019293   0.026215  -0.021860  -0.036175
    24  H    0.014388  -0.003562   0.001120  -0.001023  -0.004230   0.000022
    25  H   -0.013612   0.012730   0.000614  -0.002097   0.003905   0.000296
    26  H    0.004867  -0.003790  -0.001210   0.000205   0.002136   0.000215
             13         14         15         16         17         18
     1  O    0.000015   0.055603   0.003805   0.000095   0.000810  -0.003539
     2  O    0.009939  -0.000056   0.000000  -0.034687  -0.000703   0.000798
     3  O    0.260646  -0.000793   0.000001   0.002770  -0.030751   0.004816
     4  O   -0.000710   0.232186   0.000100   0.000590   0.005016  -0.037290
     5  O    0.000083  -0.000347   0.000071  -0.056657   0.000796   0.001721
     6  O    0.000002   0.000224   0.286078  -0.000323  -0.000251   0.000061
     7  C   -0.059040  -0.004813  -0.003063   0.286506  -0.109145   0.077995
     8  C    0.046491   0.026465   0.001419   0.053217   0.461598  -0.172155
     9  C    0.010718   0.014141   0.003912  -0.024484  -0.115655   0.337001
    10  C   -0.010339  -0.100316   0.026833  -0.046982  -0.026921   0.043522
    11  C    0.002670   0.040985  -0.069841   0.077162   0.070570  -0.006355
    12  C   -0.000499  -0.006153   0.012629   0.029610   0.014598  -0.010540
    13  H    0.401085   0.000026   0.000000  -0.000016  -0.004241  -0.000264
    14  H    0.000026   0.391679  -0.000012  -0.000012  -0.000272   0.000221
    15  H    0.000000  -0.000012   0.387179   0.000001   0.000003   0.000002
    16  H   -0.000016  -0.000012   0.000001   0.616165   0.004529   0.002175
    17  H   -0.004241  -0.000272   0.000003   0.004529   0.598754   0.005644
    18  H   -0.000264   0.000221   0.000002   0.002175   0.005644   0.635974
    19  H    0.000018   0.000941   0.000656  -0.000069   0.001699   0.005466
    20  H    0.000004  -0.000005   0.000045   0.003616  -0.000067   0.002591
    21  H    0.000000   0.000002  -0.006247  -0.000006  -0.000001  -0.000013
    22  H    0.000000   0.000000   0.006026  -0.000012   0.000000  -0.000002
    23  C   -0.003412   0.000053  -0.000056  -0.034290  -0.010241   0.001887
    24  H   -0.000016   0.000000   0.000000   0.006767  -0.000009  -0.000004
    25  H    0.000011   0.000000   0.000000  -0.001103   0.000009   0.000000
    26  H   -0.000007   0.000000   0.000000   0.000033   0.000014   0.000000
             19         20         21         22         23         24
     1  O   -0.080639  -0.003559  -0.001279  -0.000191  -0.000467   0.000001
     2  O   -0.001278  -0.001033  -0.000013   0.000132   0.138577  -0.048054
     3  O    0.000823   0.000147   0.000002  -0.000003  -0.001709   0.000314
     4  O   -0.001252   0.000800  -0.000017  -0.000001   0.000384   0.000004
     5  O   -0.001690  -0.043683   0.000188   0.000270   0.030808  -0.000603
     6  O    0.005267   0.006390  -0.031567  -0.046433   0.001577   0.000004
     7  C    0.141512   0.116651  -0.001281  -0.015559  -0.037274   0.014388
     8  C   -0.049965  -0.056942   0.002232   0.006483  -0.167568  -0.003562
     9  C   -0.199610  -0.056871  -0.009860   0.005561   0.019293   0.001120
    10  C    0.709282   0.118304  -0.032210   0.000561   0.026215  -0.001023
    11  C   -0.215209   0.203028  -0.070581  -0.134754  -0.021860  -0.004230
    12  C   -0.111007  -0.034342   0.470629   0.504262  -0.036175   0.000022
    13  H    0.000018   0.000004   0.000000   0.000000  -0.003412  -0.000016
    14  H    0.000941  -0.000005   0.000002   0.000000   0.000053   0.000000
    15  H    0.000656   0.000045  -0.006247   0.006026  -0.000056   0.000000
    16  H   -0.000069   0.003616  -0.000006  -0.000012  -0.034290   0.006767
    17  H    0.001699  -0.000067  -0.000001   0.000000  -0.010241  -0.000009
    18  H    0.005466   0.002591  -0.000013  -0.000002   0.001887  -0.000004
    19  H    0.710285   0.005712   0.000190  -0.000123   0.001540   0.000000
    20  H    0.005712   0.629475  -0.000526  -0.001295   0.002750   0.000010
    21  H    0.000190  -0.000526   0.554812  -0.035731  -0.000108   0.000000
    22  H   -0.000123  -0.001295  -0.035731   0.570301  -0.000838  -0.000001
    23  C    0.001540   0.002750  -0.000108  -0.000838   5.271822   0.396505
    24  H    0.000000   0.000010   0.000000  -0.000001   0.396505   0.543132
    25  H   -0.000001  -0.000016  -0.000001   0.000018   0.396133  -0.038041
    26  H    0.000000  -0.000001   0.000000   0.000000   0.407871  -0.027595
             25         26
     1  O   -0.000003   0.000000
     2  O   -0.030375  -0.041839
     3  O   -0.000257   0.000201
     4  O   -0.000003   0.000000
     5  O   -0.001243  -0.000068
     6  O   -0.000091   0.000000
     7  C   -0.013612   0.004867
     8  C    0.012730  -0.003790
     9  C    0.000614  -0.001210
    10  C   -0.002097   0.000205
    11  C    0.003905   0.002136
    12  C    0.000296   0.000215
    13  H    0.000011  -0.000007
    14  H    0.000000   0.000000
    15  H    0.000000   0.000000
    16  H   -0.001103   0.000033
    17  H    0.000009   0.000014
    18  H    0.000000   0.000000
    19  H   -0.000001   0.000000
    20  H   -0.000016  -0.000001
    21  H   -0.000001   0.000000
    22  H    0.000018   0.000000
    23  C    0.396133   0.407871
    24  H   -0.038041  -0.027595
    25  H    0.525628  -0.029205
    26  H   -0.029205   0.519516
 Mulliken atomic charges:
              1
     1  O   -0.762112
     2  O   -0.104661
     3  O   -0.478183
     4  O   -0.503512
     5  O   -0.122428
     6  O   -0.457703
     7  C   -0.089905
     8  C   -0.066556
     9  C    0.104010
    10  C   -0.416944
    11  C    0.281292
    12  C   -0.404542
    13  H    0.346836
    14  H    0.350251
    15  H    0.350460
    16  H    0.115406
    17  H    0.134217
    18  H    0.110285
    19  H    0.077450
    20  H    0.108815
    21  H    0.161384
    22  H    0.141328
    23  C   -0.381416
    24  H    0.160868
    25  H    0.176703
    26  H    0.168656
 Sum of Mulliken atomic charges =  -1.00000
 Mulliken charges with hydrogens summed into heavy atoms:
              1
     1  O   -0.762112
     2  O   -0.104661
     3  O   -0.131346
     4  O   -0.153261
     5  O   -0.122428
     6  O   -0.107243
     7  C    0.025501
     8  C    0.067661
     9  C    0.214295
    10  C   -0.339493
    11  C    0.390107
    12  C   -0.101830
    23  C    0.124811
 Sum of Mulliken charges with hydrogens summed into heavy atoms =  -1.00000
 Electronic spatial extent (au):  <R**2>=           5869.4390
 Charge=             -1.0000 electrons
 Dipole moment (field-independent basis, Debye):
    X=              0.0053    Y=             -4.7281    Z=              4.5260  Tot=              6.5452
 Quadrupole moment (field-independent basis, Debye-Ang):
   XX=            -92.7408   YY=            -89.9714   ZZ=            -95.5418
   XY=              3.5886   XZ=             14.8786   YZ=             14.2557
 Traceless Quadrupole moment (field-independent basis, Debye-Ang):
   XX=              0.0105   YY=              2.7800   ZZ=             -2.7905
   XY=              3.5886   XZ=             14.8786   YZ=             14.2557
 Octapole moment (field-independent basis, Debye-Ang**2):
  XXX=            474.5337  YYY=           -205.2063  ZZZ=            557.5569  XYY=            144.8381
  XXY=            -86.3387  XXZ=            126.2378  XZZ=             92.9168  YZZ=           -103.6873
  YYZ=            201.0022  XYZ=              7.5599
 Hexadecapole moment (field-independent basis, Debye-Ang**3):
 XXXX=          -3024.7400 YYYY=           -802.6775 ZZZZ=          -3834.9220 XXXY=            341.8293
 XXXZ=           -844.7948 YYYX=            251.5129 YYYZ=            688.3229 ZZZX=           -777.1016
 ZZZY=            762.3517 XXYY=           -661.5829 XXZZ=           -934.3198 YYZZ=           -817.5100
 XXYZ=            217.4703 YYXZ=           -342.2157 ZZXY=             25.2522
 N-N= 9.206326858035D+02 E-N=-3.559532482079D+03  KE= 7.210875476388D+02


 WE HAVE LEARNED THAT NOTHING IS SIMPLE AND
 RATIONAL EXCEPT WHAT WE OURSELVES HAVE INVENTED;
 THAT GOD THINKS IN TERMS NEITHER OF EUCLID OR RIEMANN; THAT SCIENCE HAS "EXPLAINED" NOTHING;
 THAT THE MORE WE KNOW THE MORE FANTASTIC THE WORLD BECOMES
 AND THE PROFOUNDER THE SURROUNDING DARKNESS.
   --  ALDOUS HUXLEY
 Error termination request processed by link 9999.
 Error termination via Lnk1e in /opt/gaussian//g09/l9999.exe at Tue Jul  5 18:39:15 2011.
 Job cpu time:  6 days 22 hours 35 minutes 37.3 seconds.
 File lengths (MBytes):  RWF=    246 Int=      0 D2E=      0 Chk=     16 Scr=      1
Error: segmentation violation
   rax 0000000000000000, rbx ffffffffffffffff, rcx ffffffffffffffff
   rdx 0000000000007df0, rsp 00007fff0c95bc88, rbp 00007fff0c95c260
   rsi 000000000000000b, rdi 0000000000007df0, r8  00002aaebe2f04e0
   r9  0000000000000000, r10 0000000000000000, r11 0000000000000206
   r12 0000000000000000, r13 0000000000000000, r14 00007fff0c95c2a8
   r15 00000000000000bb
  --- traceback not available
