'c0339-ib c0776-ib'
 Entering Gaussian System, Link 0=g09
 Initial command:
 /usr/common/usg/g09/b11/g09/l1.exe /global/scratch/sd/hmayes/g09/1213902.cvrsvc09-ib/Gau-15983.inp -scrdir=/global/scratch/sd/hmayes/g09/1213902.cvrsvc09-ib/
 Entering Link 1 = /usr/common/usg/g09/b11/g09/l1.exe PID=     15984.
  
 Copyright (c) 1988,1990,1992,1993,1995,1998,2003,2009,2010,
            Gaussian, Inc.  All Rights Reserved.
  
 This is part of the Gaussian(R) 09 program.  It is based on
 the Gaussian(R) 03 system (copyright 2003, Gaussian, Inc.),
 the Gaussian(R) 98 system (copyright 1998, Gaussian, Inc.),
 the Gaussian(R) 94 system (copyright 1995, Gaussian, Inc.),
 the Gaussian 92(TM) system (copyright 1992, Gaussian, Inc.),
 the Gaussian 90(TM) system (copyright 1990, Gaussian, Inc.),
 the Gaussian 88(TM) system (copyright 1988, Gaussian, Inc.),
 the Gaussian 86(TM) system (copyright 1986, Carnegie Mellon
 University), and the Gaussian 82(TM) system (copyright 1983,
 Carnegie Mellon University). Gaussian is a federally registered
 trademark of Gaussian, Inc.
  
 This software contains proprietary and confidential information,
 including trade secrets, belonging to Gaussian, Inc.
  
 This software is provided under written license and may be
 used, copied, transmitted, or stored only in accord with that
 written license.
  
 The following legend is applicable only to US Government
 contracts under FAR:
  
                    RESTRICTED RIGHTS LEGEND
  
 Use, reproduction and disclosure by the US Government is
 subject to restrictions as set forth in subparagraphs (a)
 and (c) of the Commercial Computer Software - Restricted
 Rights clause in FAR 52.227-19.
  
 Gaussian, Inc.
 340 Quinnipiac St., Bldg. 40, Wallingford CT 06492
  
  
 ---------------------------------------------------------------
 Warning -- This program may not be used in any manner that
 competes with the business of Gaussian, Inc. or will provide
 assistance to any competitor of Gaussian, Inc.  The licensee
 of this program is prohibited from giving any competitor of
 Gaussian, Inc. access to this program.  By using this program,
 the user acknowledges that Gaussian, Inc. is engaged in the
 business of creating and licensing software in the field of
 computational chemistry and represents and warrants to the
 licensee that it is not a competitor of Gaussian, Inc. and that
 it will not use this program in any manner prohibited above.
 ---------------------------------------------------------------
  

 Cite this work as:
 Gaussian 09, Revision B.01,
 M. J. Frisch, G. W. Trucks, H. B. Schlegel, G. E. Scuseria, 
 M. A. Robb, J. R. Cheeseman, G. Scalmani, V. Barone, B. Mennucci, 
 G. A. Petersson, H. Nakatsuji, M. Caricato, X. Li, H. P. Hratchian, 
 A. F. Izmaylov, J. Bloino, G. Zheng, J. L. Sonnenberg, M. Hada, 
 M. Ehara, K. Toyota, R. Fukuda, J. Hasegawa, M. Ishida, T. Nakajima, 
 Y. Honda, O. Kitao, H. Nakai, T. Vreven, J. A. Montgomery, Jr., 
 J. E. Peralta, F. Ogliaro, M. Bearpark, J. J. Heyd, E. Brothers, 
 K. N. Kudin, V. N. Staroverov, T. Keith, R. Kobayashi, J. Normand, 
 K. Raghavachari, A. Rendell, J. C. Burant, S. S. Iyengar, J. Tomasi, 
 M. Cossi, N. Rega, J. M. Millam, M. Klene, J. E. Knox, J. B. Cross, 
 V. Bakken, C. Adamo, J. Jaramillo, R. Gomperts, R. E. Stratmann, 
 O. Yazyev, A. J. Austin, R. Cammi, C. Pomelli, J. W. Ochterski, 
 R. L. Martin, K. Morokuma, V. G. Zakrzewski, G. A. Voth, 
 P. Salvador, J. J. Dannenberg, S. Dapprich, A. D. Daniels, 
 O. Farkas, J. B. Foresman, J. V. Ortiz, J. Cioslowski, 
 and D. J. Fox, Gaussian, Inc., Wallingford CT, 2010.
 
 ******************************************
 Gaussian 09:  EM64L-G09RevB.01 12-Aug-2010
                 8-Sep-2011 
 ******************************************
 %chk=/global/u1/h/hmayes/gaussian/rad_ends/init_gas_rad2_3.chk
 %mem=16GB
 %nprocshared=8
 Will use up to    8 processors via shared memory.
 %nproclinda=2
 Will use up to    2 processors via Linda.
 ----------------------------------------------------------------------
 # opt b3lyp/6-31+g(2df,p) nosymm scf=(xqc,conver=6,maxcycle=1000) geom
 =allcheck guess=read
 ----------------------------------------------------------------------
 1/14=-1,18=20,19=15,26=3,29=7,38=1/1,3;
 2/9=110,12=2,15=1,40=1/2;
 3/5=1,6=6,7=114,11=2,14=-4,16=1,25=1,30=1,71=1,74=-5,116=-2/1,2,3;
 4/5=1/1;
 5/5=2,6=6,7=1000,8=3,13=1,38=6/2,8;
 6/7=2,8=2,9=2,10=2,28=1/1;
 7/30=1/1,2,3,16;
 1/14=-1,18=20,19=15/3(2);
 2/9=110,15=1/2;
 99//99;
 2/9=110,15=1/2;
 3/5=1,6=6,7=114,11=2,14=-2,16=1,25=1,30=1,71=1,74=-5/1,2,3;
 4/5=5,16=3/1;
 5/5=2,6=6,7=1000,8=3,13=1,38=5/2,8;
 7/30=1/1,2,3,16;
 1/14=-1,18=20,19=15/3(-5);
 2/9=110,15=1/2;
 6/7=2,8=2,9=2,10=2,19=2,28=1/1;
 99/9=1/99;
 ------------------------------------------------
 init_THF_rad2_3 from initTHFrad2_d1f step 73.205
 ------------------------------------------------
 Redundant internal coordinates taken from checkpoint file:
 /global/u1/h/hmayes/gaussian/rad_ends/init_gas_rad2_3.chk
 Charge =  0 Multiplicity = 2
 O,0,-0.0344931874,0.1912519577,-0.2323464408
 O,0,-3.7005964473,1.2605652494,-4.0870971628
 O,0,-0.9721623276,2.1044819362,-4.5019712084
 O,0,0.4956064306,2.3657492056,-2.0863304799
 O,0,-3.0981553386,0.3647529535,-2.0686517414
 O,0,-1.8745712888,-1.557716193,0.7588337457
 C,0,-2.6391416284,0.715860833,-3.3818273003
 C,0,-1.5551649102,1.7871492882,-3.2455286806
 C,0,-0.4191027494,1.3091411642,-2.3411220409
 C,0,-0.9440546141,0.825502545,-0.9758779387
 C,0,-2.1311182488,-0.2616457303,-1.2877100174
 C,0,-2.7631672636,-0.7478138806,0.0158438596
 H,0,-4.2830916907,0.5581598377,-4.4010811702
 H,0,-1.6340228839,2.5469810698,-5.0470716984
 H,0,0.7297773062,2.7596712643,-2.9373580294
 H,0,-1.0850988797,-1.0287077873,0.9576858697
 H,0,-2.2459892596,-0.1877828502,-3.871245681
 H,0,-2.0219038717,2.67668697,-2.8001154344
 H,0,0.1009464045,0.4686447649,-2.8244375162
 H,0,-1.4584327722,1.6397221879,-0.4361148895
 H,0,-1.6502168267,-1.0927860231,-1.8202126889
 H,0,-3.6248361426,-1.3717615103,-0.2402113689
 H,0,-3.12139181,0.1111687475,0.599132013
 Recover connectivity data from disk.

 GradGradGradGradGradGradGradGradGradGradGradGradGradGradGradGradGradGrad
 Berny optimization.
 Initialization pass.
                           ----------------------------
                           !    Initial Parameters    !
                           ! (Angstroms and Degrees)  !
 --------------------------                            --------------------------
 ! Name  Definition              Value          Derivative Info.                !
 --------------------------------------------------------------------------------
 ! R1    R(1,10)                 1.3351         estimate D2E/DX2                !
 ! R2    R(2,7)                  1.3859         estimate D2E/DX2                !
 ! R3    R(2,13)                 0.965          estimate D2E/DX2                !
 ! R4    R(3,8)                  1.421          estimate D2E/DX2                !
 ! R5    R(3,14)                 0.9649         estimate D2E/DX2                !
 ! R6    R(4,9)                  1.4206         estimate D2E/DX2                !
 ! R7    R(4,15)                 0.9666         estimate D2E/DX2                !
 ! R8    R(5,7)                  1.4347         estimate D2E/DX2                !
 ! R9    R(5,11)                 1.3919         estimate D2E/DX2                !
 ! R10   R(6,12)                 1.4134         estimate D2E/DX2                !
 ! R11   R(6,16)                 0.9709         estimate D2E/DX2                !
 ! R12   R(7,8)                  1.5301         estimate D2E/DX2                !
 ! R13   R(7,17)                 1.1003         estimate D2E/DX2                !
 ! R14   R(8,9)                  1.5288         estimate D2E/DX2                !
 ! R15   R(8,18)                 1.0989         estimate D2E/DX2                !
 ! R16   R(9,10)                 1.5406         estimate D2E/DX2                !
 ! R17   R(9,19)                 1.1002         estimate D2E/DX2                !
 ! R18   R(10,11)                1.6396         estimate D2E/DX2                !
 ! R19   R(10,20)                1.104          estimate D2E/DX2                !
 ! R20   R(11,12)                1.5281         estimate D2E/DX2                !
 ! R21   R(11,21)                1.098          estimate D2E/DX2                !
 ! R22   R(12,22)                1.0942         estimate D2E/DX2                !
 ! R23   R(12,23)                1.0984         estimate D2E/DX2                !
 ! A1    A(7,2,13)             109.9863         estimate D2E/DX2                !
 ! A2    A(8,3,14)             108.6933         estimate D2E/DX2                !
 ! A3    A(9,4,15)             107.5302         estimate D2E/DX2                !
 ! A4    A(7,5,11)             113.6649         estimate D2E/DX2                !
 ! A5    A(12,6,16)            107.8586         estimate D2E/DX2                !
 ! A6    A(2,7,5)              108.4769         estimate D2E/DX2                !
 ! A7    A(2,7,8)              108.2239         estimate D2E/DX2                !
 ! A8    A(2,7,17)             111.7209         estimate D2E/DX2                !
 ! A9    A(5,7,8)              108.4489         estimate D2E/DX2                !
 ! A10   A(5,7,17)             108.6905         estimate D2E/DX2                !
 ! A11   A(8,7,17)             111.1918         estimate D2E/DX2                !
 ! A12   A(3,8,7)              111.6073         estimate D2E/DX2                !
 ! A13   A(3,8,9)              106.7398         estimate D2E/DX2                !
 ! A14   A(3,8,18)             110.6027         estimate D2E/DX2                !
 ! A15   A(7,8,9)              111.1147         estimate D2E/DX2                !
 ! A16   A(7,8,18)             107.5758         estimate D2E/DX2                !
 ! A17   A(9,8,18)             109.2055         estimate D2E/DX2                !
 ! A18   A(4,9,8)              110.6123         estimate D2E/DX2                !
 ! A19   A(4,9,10)             107.0955         estimate D2E/DX2                !
 ! A20   A(4,9,19)             110.0378         estimate D2E/DX2                !
 ! A21   A(8,9,10)             111.6667         estimate D2E/DX2                !
 ! A22   A(8,9,19)             109.2836         estimate D2E/DX2                !
 ! A23   A(10,9,19)            108.0915         estimate D2E/DX2                !
 ! A24   A(1,10,9)             114.2383         estimate D2E/DX2                !
 ! A25   A(1,10,11)            106.5093         estimate D2E/DX2                !
 ! A26   A(1,10,20)            113.297          estimate D2E/DX2                !
 ! A27   A(9,10,11)            106.6376         estimate D2E/DX2                !
 ! A28   A(9,10,20)            111.1306         estimate D2E/DX2                !
 ! A29   A(11,10,20)           104.1624         estimate D2E/DX2                !
 ! A30   A(5,11,10)            108.1385         estimate D2E/DX2                !
 ! A31   A(5,11,12)            109.5377         estimate D2E/DX2                !
 ! A32   A(5,11,21)            111.8909         estimate D2E/DX2                !
 ! A33   A(10,11,12)           110.3755         estimate D2E/DX2                !
 ! A34   A(10,11,21)           106.0841         estimate D2E/DX2                !
 ! A35   A(12,11,21)           110.7344         estimate D2E/DX2                !
 ! A36   A(6,12,11)            111.7593         estimate D2E/DX2                !
 ! A37   A(6,12,22)            106.9388         estimate D2E/DX2                !
 ! A38   A(6,12,23)            111.9642         estimate D2E/DX2                !
 ! A39   A(11,12,22)           107.9089         estimate D2E/DX2                !
 ! A40   A(11,12,23)           109.8222         estimate D2E/DX2                !
 ! A41   A(22,12,23)           108.2632         estimate D2E/DX2                !
 ! D1    D(13,2,7,5)           -78.2337         estimate D2E/DX2                !
 ! D2    D(13,2,7,8)           164.2957         estimate D2E/DX2                !
 ! D3    D(13,2,7,17)           41.5556         estimate D2E/DX2                !
 ! D4    D(14,3,8,7)            67.7685         estimate D2E/DX2                !
 ! D5    D(14,3,8,9)          -170.6482         estimate D2E/DX2                !
 ! D6    D(14,3,8,18)          -51.9592         estimate D2E/DX2                !
 ! D7    D(15,4,9,8)           -49.9486         estimate D2E/DX2                !
 ! D8    D(15,4,9,10)         -171.8441         estimate D2E/DX2                !
 ! D9    D(15,4,9,19)           70.8982         estimate D2E/DX2                !
 ! D10   D(11,5,7,2)           176.725          estimate D2E/DX2                !
 ! D11   D(11,5,7,8)           -65.9482         estimate D2E/DX2                !
 ! D12   D(11,5,7,17)           55.0591         estimate D2E/DX2                !
 ! D13   D(7,5,11,10)           66.6643         estimate D2E/DX2                !
 ! D14   D(7,5,11,12)         -173.0036         estimate D2E/DX2                !
 ! D15   D(7,5,11,21)          -49.8116         estimate D2E/DX2                !
 ! D16   D(16,6,12,11)          59.5016         estimate D2E/DX2                !
 ! D17   D(16,6,12,22)         177.3852         estimate D2E/DX2                !
 ! D18   D(16,6,12,23)         -64.1863         estimate D2E/DX2                !
 ! D19   D(2,7,8,3)            -67.4501         estimate D2E/DX2                !
 ! D20   D(2,7,8,9)            173.5347         estimate D2E/DX2                !
 ! D21   D(2,7,8,18)            54.0481         estimate D2E/DX2                !
 ! D22   D(5,7,8,3)            175.0612         estimate D2E/DX2                !
 ! D23   D(5,7,8,9)             56.0461         estimate D2E/DX2                !
 ! D24   D(5,7,8,18)           -63.4405         estimate D2E/DX2                !
 ! D25   D(17,7,8,3)            55.6114         estimate D2E/DX2                !
 ! D26   D(17,7,8,9)           -63.4037         estimate D2E/DX2                !
 ! D27   D(17,7,8,18)          177.1097         estimate D2E/DX2                !
 ! D28   D(3,8,9,4)             65.4023         estimate D2E/DX2                !
 ! D29   D(3,8,9,10)          -175.4298         estimate D2E/DX2                !
 ! D30   D(3,8,9,19)           -55.8917         estimate D2E/DX2                !
 ! D31   D(7,8,9,4)           -172.703          estimate D2E/DX2                !
 ! D32   D(7,8,9,10)           -53.535          estimate D2E/DX2                !
 ! D33   D(7,8,9,19)            66.0031         estimate D2E/DX2                !
 ! D34   D(18,8,9,4)           -54.194          estimate D2E/DX2                !
 ! D35   D(18,8,9,10)           64.9739         estimate D2E/DX2                !
 ! D36   D(18,8,9,19)         -175.488          estimate D2E/DX2                !
 ! D37   D(4,9,10,1)           -69.4528         estimate D2E/DX2                !
 ! D38   D(4,9,10,11)          173.1731         estimate D2E/DX2                !
 ! D39   D(4,9,10,20)           60.2646         estimate D2E/DX2                !
 ! D40   D(8,9,10,1)           169.3154         estimate D2E/DX2                !
 ! D41   D(8,9,10,11)           51.9413         estimate D2E/DX2                !
 ! D42   D(8,9,10,20)          -60.9672         estimate D2E/DX2                !
 ! D43   D(19,9,10,1)           49.0758         estimate D2E/DX2                !
 ! D44   D(19,9,10,11)         -68.2983         estimate D2E/DX2                !
 ! D45   D(19,9,10,20)         178.7931         estimate D2E/DX2                !
 ! D46   D(1,10,11,5)         -179.7516         estimate D2E/DX2                !
 ! D47   D(1,10,11,12)          60.4417         estimate D2E/DX2                !
 ! D48   D(1,10,11,21)         -59.5677         estimate D2E/DX2                !
 ! D49   D(9,10,11,5)          -57.3763         estimate D2E/DX2                !
 ! D50   D(9,10,11,12)        -177.183          estimate D2E/DX2                !
 ! D51   D(9,10,11,21)          62.8076         estimate D2E/DX2                !
 ! D52   D(20,10,11,5)          60.2335         estimate D2E/DX2                !
 ! D53   D(20,10,11,12)        -59.5732         estimate D2E/DX2                !
 ! D54   D(20,10,11,21)       -179.5826         estimate D2E/DX2                !
 ! D55   D(5,11,12,6)          171.4975         estimate D2E/DX2                !
 ! D56   D(5,11,12,22)          54.1965         estimate D2E/DX2                !
 ! D57   D(5,11,12,23)         -63.6154         estimate D2E/DX2                !
 ! D58   D(10,11,12,6)         -69.5436         estimate D2E/DX2                !
 ! D59   D(10,11,12,22)        173.1554         estimate D2E/DX2                !
 ! D60   D(10,11,12,23)         55.3435         estimate D2E/DX2                !
 ! D61   D(21,11,12,6)          47.6246         estimate D2E/DX2                !
 ! D62   D(21,11,12,22)        -69.6764         estimate D2E/DX2                !
 ! D63   D(21,11,12,23)        172.5118         estimate D2E/DX2                !
 --------------------------------------------------------------------------------
 Trust Radius=3.00D-01 FncErr=1.00D-07 GrdErr=1.00D-06
 Number of steps in this run=    137 maximum allowed number of steps=    138.
 GradGradGradGradGradGradGradGradGradGradGradGradGradGradGradGradGradGrad

                          Input orientation:                          
 ---------------------------------------------------------------------
 Center     Atomic      Atomic             Coordinates (Angstroms)
 Number     Number       Type             X           Y           Z
 ---------------------------------------------------------------------
      1          8           0       -0.034493    0.191252   -0.232346
      2          8           0       -3.700596    1.260565   -4.087097
      3          8           0       -0.972162    2.104482   -4.501971
      4          8           0        0.495606    2.365749   -2.086330
      5          8           0       -3.098155    0.364753   -2.068652
      6          8           0       -1.874571   -1.557716    0.758834
      7          6           0       -2.639142    0.715861   -3.381827
      8          6           0       -1.555165    1.787149   -3.245529
      9          6           0       -0.419103    1.309141   -2.341122
     10          6           0       -0.944055    0.825503   -0.975878
     11          6           0       -2.131118   -0.261646   -1.287710
     12          6           0       -2.763167   -0.747814    0.015844
     13          1           0       -4.283092    0.558160   -4.401081
     14          1           0       -1.634023    2.546981   -5.047072
     15          1           0        0.729777    2.759671   -2.937358
     16          1           0       -1.085099   -1.028708    0.957686
     17          1           0       -2.245989   -0.187783   -3.871246
     18          1           0       -2.021904    2.676687   -2.800115
     19          1           0        0.100946    0.468645   -2.824438
     20          1           0       -1.458433    1.639722   -0.436115
     21          1           0       -1.650217   -1.092786   -1.820213
     22          1           0       -3.624836   -1.371762   -0.240211
     23          1           0       -3.121392    0.111169    0.599132
 ---------------------------------------------------------------------
                    Distance matrix (angstroms):
                    1          2          3          4          5
     1  O    0.000000
     2  O    5.426126   0.000000
     3  O    4.771726   2.885943   0.000000
     4  O    2.906321   4.778349   2.838649   0.000000
     5  O    3.576052   2.289003   3.669816   4.113323   0.000000
     6  O    2.725292   5.895772   6.473184   5.395024   3.631490
     7  C    4.120514   1.385927   2.441682   3.771881   1.434713
     8  C    3.733443   2.363981   1.421000   2.425733   2.406049
     9  C    2.417547   3.717390   2.368061   1.420575   2.853670
    10  C    1.335071   4.179412   3.750988   2.382874   2.458982
    11  C    2.390553   3.552036   4.156106   3.800090   1.391907
    12  C    2.896395   4.663313   5.635064   4.973230   2.386450
    13  H    5.963519   0.965018   3.655618   5.609047   2.623301
    14  H    5.593705   2.616705   0.964883   3.651596   3.972001
    15  H    3.807621   4.816371   2.402891   0.966570   4.598190
    16  H    2.002062   6.126290   6.295831   4.825661   3.892666
    17  H    4.275040   2.064022   2.697207   4.150036   2.069016
    18  H    4.089086   2.545532   2.079829   2.635153   2.652997
    19  H    2.610407   4.083280   2.577139   2.073539   3.288808
    20  H    2.041370   4.301247   4.121122   2.658683   2.641858
    21  H    2.603965   3.857601   4.227778   4.078829   2.069461
    22  H    3.915819   4.661911   6.106025   5.861330   2.576057
    23  H    3.197923   4.859767   5.883344   5.037610   2.679910
                    6          7          8          9         10
     6  O    0.000000
     7  C    4.785268   0.000000
     8  C    5.227338   1.530112   0.000000
     9  C    4.466205   2.522622   1.528751   0.000000
    10  C    3.091087   2.945154   2.539593   1.540575   0.000000
    11  C    2.435971   2.366207   2.891771   2.551087   1.639589
    12  C    1.413357   3.701607   4.303703   3.909091   2.601539
    13  H    6.074753   1.940701   3.207382   4.442726   4.790893
    14  H    7.114418   2.671386   1.956814   3.214101   4.473719
    15  H    6.251744   3.965391   2.502345   1.944083   3.223372
    16  H    0.970906   4.928483   5.081046   4.097709   2.682659
    17  H    4.842758   1.100305   2.183831   2.814174   3.332407
    18  H    5.533353   2.136401   1.098870   2.156346   2.813625
    19  H    4.566031   2.807113   2.158350   1.100218   2.153264
    20  H    3.438704   3.305271   2.814942   2.195118   1.104030
    21  H    2.630204   2.586081   3.214745   2.748862   2.211650
    22  H    2.023882   3.898655   4.826405   4.677370   3.543411
    23  H    2.089316   4.055398   4.476985   4.169244   2.780598
                   11         12         13         14         15
    11  C    0.000000
    12  C    1.528103   0.000000
    13  H    3.872486   4.850254   0.000000
    14  H    4.718929   6.145222   3.374949   0.000000
    15  H    4.475982   5.764071   5.667274   3.175481   0.000000
    16  H    2.593134   1.944706   6.439075   7.010277   5.728609
    17  H    2.587143   3.961133   2.233146   3.039079   4.291249
    18  H    3.306523   4.495142   3.487724   2.283876   2.756351
    19  H    2.806594   4.213089   4.659786   3.502814   2.378441
    20  H    2.189274   2.758066   4.986926   4.702645   3.506960
    21  H    1.098007   2.174573   4.039621   4.864235   4.664098
    22  H    2.135604   1.094234   4.633652   6.513508   6.580729
    23  H    2.163286   1.098363   5.152813   6.326537   5.861129
                   16         17         18         19         20
    16  H    0.000000
    17  H    5.037202   0.000000
    18  H    5.359909   3.066386   0.000000
    19  H    4.237125   2.652322   3.063092   0.000000
    20  H    3.033575   3.969905   2.642214   3.083370   0.000000
    21  H    2.835522   2.319636   3.912453   2.552079   3.069057
    22  H    2.828941   4.060472   5.050984   4.893544   3.714931
    23  H    2.361010   4.565083   4.398368   4.715091   2.484682
                   21         22         23
    21  H    0.000000
    22  H    2.544278   0.000000
    23  H    3.076864   1.776805   0.000000
 Symmetry turned off by external request.
 Stoichiometry    C6H11O6(2)
 Framework group  C1[X(C6H11O6)]
 Deg. of freedom    63
 Full point group                 C1      NOp   1
 Rotational constants (GHZ):      1.3409228      0.7317780      0.4965638
 Standard basis: 6-31+G(2df,p) (6D, 7F)
 Integral buffers will be    131072 words long.
 Raffenetti 2 integral format.
 Two-electron integral symmetry is turned off.
   439 basis functions,   653 primitive gaussians,   475 cartesian basis functions
    48 alpha electrons       47 beta electrons
       nuclear repulsion energy       808.8452941973 Hartrees.
 NAtoms=   23 NActive=   23 NUniq=   23 SFac= 1.00D+00 NAtFMM=   50 NAOKFM=F Big=F
 One-electron integrals computed using PRISM.
 NBasis=   439 RedAO= T  NBF=   439
 NBsUse=   439 1.00D-06 NBFU=   439
 Initial guess read from the checkpoint file:  /global/u1/h/hmayes/gaussian/rad_ends/init_gas_rad2_3.chk
 B after Tr=     0.000000    0.000000    0.000000
         Rot=    1.000000    0.000000    0.000000    0.000000 Ang=   0.00 deg.
 Initial guess <Sx>= 0.0000 <Sy>= 0.0000 <Sz>= 0.5000 <S**2>= 0.7555 S= 0.5027
 Requested convergence on RMS density matrix=1.00D-06 within 128 cycles.
 Requested convergence on MAX density matrix=1.00D-04.
 Requested convergence on             energy=1.00D-04.
 No special actions if energy rises.
 SCF Done:  E(UB3LYP) =  -686.595648021     A.U. after    9 cycles
             Convg  =    0.3151D-06             -V/T =  2.0067
 <Sx>= 0.0000 <Sy>= 0.0000 <Sz>= 0.5000 <S**2>= 0.7554 S= 0.5027
 <L.S>= 0.000000000000E+00
 Annihilation of the first spin contaminant:
 S**2 before annihilation     0.7554,   after     0.7500
 QCSCF skips out because SCF is already converged.

 **********************************************************************

            Population analysis using the SCF density.

 **********************************************************************

 Alpha  occ. eigenvalues --  -19.19885 -19.19732 -19.18716 -19.18192 -19.16329
 Alpha  occ. eigenvalues --  -19.15804 -10.31854 -10.28442 -10.26330 -10.26248
 Alpha  occ. eigenvalues --  -10.25841 -10.25108  -1.11907  -1.06597  -1.06436
 Alpha  occ. eigenvalues --   -1.04826  -1.03700  -1.02790  -0.80136  -0.79013
 Alpha  occ. eigenvalues --   -0.70829  -0.65896  -0.64578  -0.61526  -0.57979
 Alpha  occ. eigenvalues --   -0.55432  -0.54940  -0.53272  -0.52854  -0.48891
 Alpha  occ. eigenvalues --   -0.47681  -0.46364  -0.46286  -0.44347  -0.43347
 Alpha  occ. eigenvalues --   -0.42531  -0.40918  -0.39359  -0.37850  -0.37351
 Alpha  occ. eigenvalues --   -0.36592  -0.35072  -0.33416  -0.31297  -0.30261
 Alpha  occ. eigenvalues --   -0.29460  -0.29033  -0.27522
 Alpha virt. eigenvalues --   -0.02233  -0.00708   0.00709   0.01468   0.02621
 Alpha virt. eigenvalues --    0.03235   0.03625   0.04625   0.05745   0.06659
 Alpha virt. eigenvalues --    0.07427   0.08448   0.08869   0.09080   0.10094
 Alpha virt. eigenvalues --    0.10529   0.10839   0.11955   0.12457   0.13276
 Alpha virt. eigenvalues --    0.13523   0.14175   0.14999   0.15401   0.16265
 Alpha virt. eigenvalues --    0.17317   0.17650   0.18144   0.18817   0.19252
 Alpha virt. eigenvalues --    0.19682   0.20294   0.21084   0.21848   0.21940
 Alpha virt. eigenvalues --    0.22517   0.23369   0.23475   0.24014   0.24344
 Alpha virt. eigenvalues --    0.24816   0.25897   0.26353   0.27002   0.27210
 Alpha virt. eigenvalues --    0.28019   0.28523   0.28533   0.29300   0.29657
 Alpha virt. eigenvalues --    0.29795   0.30069   0.31037   0.31734   0.32442
 Alpha virt. eigenvalues --    0.33161   0.33496   0.34616   0.34794   0.35645
 Alpha virt. eigenvalues --    0.36839   0.37858   0.38570   0.39021   0.40141
 Alpha virt. eigenvalues --    0.40737   0.41712   0.42692   0.43208   0.44583
 Alpha virt. eigenvalues --    0.46354   0.53203   0.56409   0.57626   0.60060
 Alpha virt. eigenvalues --    0.60561   0.61684   0.63659   0.65243   0.65962
 Alpha virt. eigenvalues --    0.67021   0.68917   0.69816   0.70747   0.72705
 Alpha virt. eigenvalues --    0.72954   0.74796   0.75738   0.79123   0.79733
 Alpha virt. eigenvalues --    0.81886   0.85128   0.86242   0.86897   0.87839
 Alpha virt. eigenvalues --    0.88893   0.89083   0.90184   0.91032   0.91296
 Alpha virt. eigenvalues --    0.92264   0.93436   0.93736   0.95398   0.97887
 Alpha virt. eigenvalues --    0.98248   0.99547   1.00412   1.02146   1.03561
 Alpha virt. eigenvalues --    1.04876   1.05690   1.06592   1.07698   1.09625
 Alpha virt. eigenvalues --    1.09986   1.11451   1.11976   1.13848   1.15192
 Alpha virt. eigenvalues --    1.15547   1.15742   1.17046   1.18480   1.18762
 Alpha virt. eigenvalues --    1.20017   1.21234   1.22408   1.22753   1.23374
 Alpha virt. eigenvalues --    1.23618   1.25221   1.26220   1.26932   1.29257
 Alpha virt. eigenvalues --    1.30316   1.31542   1.32139   1.32613   1.34265
 Alpha virt. eigenvalues --    1.35924   1.37900   1.39044   1.40271   1.41082
 Alpha virt. eigenvalues --    1.43777   1.44472   1.46419   1.47947   1.50229
 Alpha virt. eigenvalues --    1.51166   1.52689   1.53849   1.54072   1.56938
 Alpha virt. eigenvalues --    1.57590   1.59926   1.61114   1.62915   1.63327
 Alpha virt. eigenvalues --    1.67251   1.68484   1.68761   1.70247   1.70319
 Alpha virt. eigenvalues --    1.74105   1.79201   1.79981   1.80959   1.81053
 Alpha virt. eigenvalues --    1.84695   1.86375   1.88352   1.89166   1.89584
 Alpha virt. eigenvalues --    1.93084   1.94438   1.98647   2.01082   2.01889
 Alpha virt. eigenvalues --    2.05028   2.07457   2.09981   2.15650   2.16845
 Alpha virt. eigenvalues --    2.20488   2.23719   2.25387   2.28262   2.29444
 Alpha virt. eigenvalues --    2.36891   2.38419   2.44345   2.46757   2.48115
 Alpha virt. eigenvalues --    2.51056   2.53908   2.54862   2.56732   2.58397
 Alpha virt. eigenvalues --    2.58747   2.61666   2.63155   2.67928   2.72425
 Alpha virt. eigenvalues --    2.72961   2.77169   2.79040   2.79781   2.80444
 Alpha virt. eigenvalues --    2.81125   2.83408   2.86253   2.87370   2.91971
 Alpha virt. eigenvalues --    2.93749   2.95061   2.95485   2.97791   3.01082
 Alpha virt. eigenvalues --    3.02194   3.04944   3.06282   3.07005   3.07574
 Alpha virt. eigenvalues --    3.08670   3.11479   3.13477   3.14763   3.18560
 Alpha virt. eigenvalues --    3.24457   3.24687   3.25905   3.27196   3.29642
 Alpha virt. eigenvalues --    3.34655   3.35807   3.38433   3.39073   3.41461
 Alpha virt. eigenvalues --    3.44445   3.47225   3.50133   3.54520   3.56752
 Alpha virt. eigenvalues --    3.57399   3.61419   3.63518   3.65445   3.67033
 Alpha virt. eigenvalues --    3.68722   3.73072   3.76015   3.76963   3.79236
 Alpha virt. eigenvalues --    3.82153   3.86103   3.87301   3.92963   3.93557
 Alpha virt. eigenvalues --    3.98621   4.05427   4.09836   4.14418   4.16578
 Alpha virt. eigenvalues --    4.17320   4.19384   4.20313   4.24269   4.26269
 Alpha virt. eigenvalues --    4.29278   4.29579   4.31228   4.32577   4.33393
 Alpha virt. eigenvalues --    4.36237   4.37234   4.38951   4.39882   4.40745
 Alpha virt. eigenvalues --    4.43337   4.46237   4.47424   4.49264   4.49943
 Alpha virt. eigenvalues --    4.50745   4.51410   4.54059   4.54880   4.55863
 Alpha virt. eigenvalues --    4.57732   4.58915   4.59587   4.61516   4.63060
 Alpha virt. eigenvalues --    4.64598   4.64870   4.66548   4.67825   4.68887
 Alpha virt. eigenvalues --    4.69223   4.71385   4.72231   4.73320   4.74932
 Alpha virt. eigenvalues --    4.76340   4.78405   4.80395   4.82207   4.85313
 Alpha virt. eigenvalues --    4.87040   4.87597   4.89299   4.89950   4.93187
 Alpha virt. eigenvalues --    4.94164   4.96191   4.98738   4.99481   5.00108
 Alpha virt. eigenvalues --    5.01540   5.04871   5.06962   5.09896   5.16725
 Alpha virt. eigenvalues --    5.19681   5.21326   5.23099   5.26059   5.27151
 Alpha virt. eigenvalues --    5.29700   5.34171   5.35223   5.37483   5.38682
 Alpha virt. eigenvalues --    5.40966   5.42428   5.43770   5.46054   5.46845
 Alpha virt. eigenvalues --    5.48129   5.49579   5.52401   5.53371   5.55677
 Alpha virt. eigenvalues --    5.60043   5.61338   5.62998   5.72370   5.75012
 Alpha virt. eigenvalues --    5.78327   5.81883   5.85616   5.90201   5.92973
 Alpha virt. eigenvalues --    5.93709   5.95025   5.98380   6.01617   6.04140
 Alpha virt. eigenvalues --    6.05088   6.07704   6.08920   6.09720   6.10910
 Alpha virt. eigenvalues --    6.15455   6.17187   6.19805   6.24845   6.30677
 Alpha virt. eigenvalues --    6.44516   6.80306   6.92970   7.08707   7.13169
 Alpha virt. eigenvalues --    7.23664   7.29209   7.33632   7.71330  11.88174
 Alpha virt. eigenvalues --   12.14146  12.31394  12.70408  12.85503  13.21093
 Alpha virt. eigenvalues --   13.26403  13.34554  13.46845  13.54943  13.60622
 Alpha virt. eigenvalues --   13.86070
  Beta  occ. eigenvalues --  -19.19732 -19.19725 -19.18183 -19.16837 -19.16303
  Beta  occ. eigenvalues --  -19.15712 -10.31857 -10.28128 -10.26329 -10.26278
  Beta  occ. eigenvalues --  -10.25787 -10.25114  -1.11704  -1.06484  -1.05950
  Beta  occ. eigenvalues --   -1.03833  -1.03545  -1.00058  -0.80006  -0.78110
  Beta  occ. eigenvalues --   -0.70568  -0.65256  -0.64161  -0.61293  -0.57765
  Beta  occ. eigenvalues --   -0.55242  -0.54568  -0.53067  -0.52497  -0.48697
  Beta  occ. eigenvalues --   -0.47022  -0.46061  -0.45667  -0.43812  -0.42005
  Beta  occ. eigenvalues --   -0.41916  -0.39370  -0.39146  -0.37312  -0.36557
  Beta  occ. eigenvalues --   -0.35807  -0.34138  -0.32655  -0.30338  -0.29192
  Beta  occ. eigenvalues --   -0.29156  -0.27385
  Beta virt. eigenvalues --   -0.15823  -0.02223  -0.00671   0.00743   0.01553
  Beta virt. eigenvalues --    0.02688   0.03298   0.03670   0.04648   0.05780
  Beta virt. eigenvalues --    0.06703   0.07562   0.08531   0.08915   0.09224
  Beta virt. eigenvalues --    0.10144   0.10618   0.10893   0.12006   0.12593
  Beta virt. eigenvalues --    0.13343   0.13596   0.14233   0.15024   0.15519
  Beta virt. eigenvalues --    0.16498   0.17446   0.17736   0.18393   0.18938
  Beta virt. eigenvalues --    0.19345   0.19727   0.20569   0.21177   0.21928
  Beta virt. eigenvalues --    0.22121   0.22584   0.23468   0.23650   0.24145
  Beta virt. eigenvalues --    0.24527   0.24920   0.25950   0.26563   0.27133
  Beta virt. eigenvalues --    0.27350   0.28327   0.28598   0.28695   0.29537
  Beta virt. eigenvalues --    0.29812   0.29913   0.30185   0.31114   0.31804
  Beta virt. eigenvalues --    0.32564   0.33497   0.33686   0.34755   0.34890
  Beta virt. eigenvalues --    0.35860   0.36942   0.38116   0.38746   0.39134
  Beta virt. eigenvalues --    0.40291   0.40811   0.41794   0.42803   0.43394
  Beta virt. eigenvalues --    0.44805   0.46406   0.53322   0.56523   0.57777
  Beta virt. eigenvalues --    0.60273   0.60671   0.62097   0.63805   0.65624
  Beta virt. eigenvalues --    0.66123   0.67141   0.69026   0.70064   0.70933
  Beta virt. eigenvalues --    0.72878   0.73020   0.74870   0.75938   0.79299
  Beta virt. eigenvalues --    0.79815   0.82025   0.85173   0.86380   0.87085
  Beta virt. eigenvalues --    0.87973   0.88961   0.89200   0.90242   0.91194
  Beta virt. eigenvalues --    0.91395   0.92338   0.93610   0.93887   0.95474
  Beta virt. eigenvalues --    0.97944   0.98451   0.99815   1.00546   1.02210
  Beta virt. eigenvalues --    1.03967   1.05336   1.05791   1.06834   1.07951
  Beta virt. eigenvalues --    1.09723   1.10471   1.11584   1.12200   1.14071
  Beta virt. eigenvalues --    1.15313   1.15680   1.16543   1.17547   1.18947
  Beta virt. eigenvalues --    1.19406   1.20351   1.21362   1.22821   1.23208
  Beta virt. eigenvalues --    1.23723   1.24072   1.25669   1.27047   1.27601
  Beta virt. eigenvalues --    1.29773   1.30489   1.31931   1.32469   1.33092
  Beta virt. eigenvalues --    1.34636   1.36541   1.38251   1.39361   1.40590
  Beta virt. eigenvalues --    1.41554   1.44102   1.44634   1.46656   1.48262
  Beta virt. eigenvalues --    1.50384   1.51259   1.53015   1.54181   1.54227
  Beta virt. eigenvalues --    1.57065   1.57912   1.60347   1.61617   1.63119
  Beta virt. eigenvalues --    1.63558   1.67580   1.68655   1.68927   1.70420
  Beta virt. eigenvalues --    1.70470   1.74235   1.79490   1.80173   1.81149
  Beta virt. eigenvalues --    1.81191   1.84840   1.86473   1.88575   1.89289
  Beta virt. eigenvalues --    1.89701   1.93237   1.94551   1.98796   2.01306
  Beta virt. eigenvalues --    2.02040   2.05178   2.07623   2.10101   2.15822
  Beta virt. eigenvalues --    2.17041   2.20656   2.23789   2.25456   2.28368
  Beta virt. eigenvalues --    2.29521   2.37099   2.38632   2.44439   2.46842
  Beta virt. eigenvalues --    2.48303   2.51137   2.53949   2.54919   2.56813
  Beta virt. eigenvalues --    2.58460   2.58800   2.61798   2.63280   2.68037
  Beta virt. eigenvalues --    2.72605   2.73134   2.77352   2.79184   2.79985
  Beta virt. eigenvalues --    2.80553   2.81192   2.83482   2.86369   2.87472
  Beta virt. eigenvalues --    2.92076   2.93886   2.95197   2.95687   2.97960
  Beta virt. eigenvalues --    3.01145   3.02272   3.05035   3.06399   3.07221
  Beta virt. eigenvalues --    3.07790   3.08779   3.11658   3.13655   3.15188
  Beta virt. eigenvalues --    3.18734   3.24617   3.24875   3.26079   3.27317
  Beta virt. eigenvalues --    3.29778   3.34956   3.35976   3.38590   3.39242
  Beta virt. eigenvalues --    3.41696   3.44663   3.47302   3.50270   3.54855
  Beta virt. eigenvalues --    3.56889   3.57603   3.61543   3.63917   3.65847
  Beta virt. eigenvalues --    3.67161   3.68932   3.73249   3.76108   3.77164
  Beta virt. eigenvalues --    3.79527   3.82450   3.86546   3.87533   3.93395
  Beta virt. eigenvalues --    3.93938   3.98945   4.05915   4.11498   4.14885
  Beta virt. eigenvalues --    4.17357   4.17754   4.21166   4.21936   4.25969
  Beta virt. eigenvalues --    4.26869   4.29664   4.30291   4.31540   4.32942
  Beta virt. eigenvalues --    4.33981   4.36485   4.37940   4.39894   4.40332
  Beta virt. eigenvalues --    4.41268   4.43793   4.46803   4.47867   4.49696
  Beta virt. eigenvalues --    4.50878   4.51032   4.51955   4.54281   4.56017
  Beta virt. eigenvalues --    4.56164   4.58053   4.59366   4.60086   4.61902
  Beta virt. eigenvalues --    4.63259   4.64904   4.65299   4.67007   4.68143
  Beta virt. eigenvalues --    4.69363   4.69512   4.71604   4.72499   4.73538
  Beta virt. eigenvalues --    4.75387   4.76515   4.79044   4.80600   4.82585
  Beta virt. eigenvalues --    4.85489   4.87214   4.88026   4.89527   4.90359
  Beta virt. eigenvalues --    4.93697   4.94589   4.96871   4.99498   5.01301
  Beta virt. eigenvalues --    5.01465   5.02342   5.06530   5.08802   5.11378
  Beta virt. eigenvalues --    5.17091   5.20142   5.21625   5.23329   5.26299
  Beta virt. eigenvalues --    5.27354   5.30285   5.34368   5.36007   5.37947
  Beta virt. eigenvalues --    5.39235   5.41255   5.43042   5.44023   5.46240
  Beta virt. eigenvalues --    5.47176   5.48792   5.50303   5.52602   5.53798
  Beta virt. eigenvalues --    5.55868   5.60436   5.61671   5.63193   5.72446
  Beta virt. eigenvalues --    5.75197   5.78626   5.82295   5.85784   5.90593
  Beta virt. eigenvalues --    5.93354   5.93824   5.95145   5.99263   6.01761
  Beta virt. eigenvalues --    6.04440   6.05195   6.07966   6.09163   6.09946
  Beta virt. eigenvalues --    6.10994   6.15816   6.18436   6.20898   6.25427
  Beta virt. eigenvalues --    6.31031   6.44726   6.81927   6.94879   7.08890
  Beta virt. eigenvalues --    7.13324   7.23817   7.29287   7.33903   7.71435
  Beta virt. eigenvalues --   11.88244  12.14202  12.31477  12.70657  12.85633
  Beta virt. eigenvalues --   13.22527  13.26761  13.35021  13.46895  13.55206
  Beta virt. eigenvalues --   13.60699  13.86230
          Condensed to atoms (all electrons):
              1          2          3          4          5          6
     1  O    8.042647   0.000019   0.000211   0.002663   0.002253  -0.026671
     2  O    0.000019   7.998449  -0.006650   0.000619  -0.013408   0.000075
     3  O    0.000211  -0.006650   8.102201  -0.023760   0.001205   0.000000
     4  O    0.002663   0.000619  -0.023760   8.050950  -0.001576   0.000067
     5  O    0.002253  -0.013408   0.001205  -0.001576   7.858141   0.001881
     6  O   -0.026671   0.000075   0.000000   0.000067   0.001881   7.984394
     7  C   -0.000803   0.290657  -0.025866  -0.006939   0.215910   0.003994
     8  C   -0.004128  -0.058503   0.191161   0.018328  -0.060925   0.001203
     9  C   -0.110393  -0.021646  -0.017599   0.276062  -0.024548  -0.001445
    10  C    0.364920   0.015897  -0.005974  -0.138480  -0.008696  -0.049806
    11  C   -0.049255  -0.018147  -0.008232   0.030590   0.214571   0.065792
    12  C   -0.010515   0.005224   0.000779  -0.002481  -0.080527   0.177013
    13  H    0.000000   0.270786  -0.000714  -0.000012   0.002000  -0.000003
    14  H   -0.000004   0.007459   0.267152   0.001101  -0.000203   0.000000
    15  H    0.000035  -0.000004   0.013435   0.262548  -0.000051  -0.000001
    16  H    0.026938  -0.000001  -0.000002  -0.000035  -0.000209   0.282720
    17  H    0.000015  -0.019041   0.004249   0.000547  -0.050138   0.000044
    18  H    0.000477   0.000632  -0.024217   0.004941  -0.001851  -0.000012
    19  H    0.003054   0.000016  -0.001176  -0.025179   0.001769  -0.000067
    20  H   -0.033452  -0.000343   0.000003   0.004195  -0.000305   0.001165
    21  H   -0.003205   0.000036   0.000076   0.000429  -0.022101   0.003937
    22  H    0.000780  -0.000055  -0.000010  -0.000004  -0.003987  -0.041063
    23  H   -0.000095  -0.000081   0.000012   0.000101  -0.004901  -0.033683
              7          8          9         10         11         12
     1  O   -0.000803  -0.004128  -0.110393   0.364920  -0.049255  -0.010515
     2  O    0.290657  -0.058503  -0.021646   0.015897  -0.018147   0.005224
     3  O   -0.025866   0.191161  -0.017599  -0.005974  -0.008232   0.000779
     4  O   -0.006939   0.018328   0.276062  -0.138480   0.030590  -0.002481
     5  O    0.215910  -0.060925  -0.024548  -0.008696   0.214571  -0.080527
     6  O    0.003994   0.001203  -0.001445  -0.049806   0.065792   0.177013
     7  C    5.448916   0.044674  -0.047509   0.134426  -0.325744  -0.043916
     8  C    0.044674   5.525313   0.298547  -0.479661   0.195052   0.010072
     9  C   -0.047509   0.298547   5.578210  -0.120279   0.230353  -0.196652
    10  C    0.134426  -0.479661  -0.120279   6.504781  -0.576822   0.173165
    11  C   -0.325744   0.195052   0.230353  -0.576822   6.778224  -0.479524
    12  C   -0.043916   0.010072  -0.196652   0.173165  -0.479524   5.756536
    13  H   -0.029930   0.015776   0.004518  -0.005183  -0.001073  -0.000372
    14  H   -0.029750   0.001622   0.009217   0.000335   0.001714  -0.000099
    15  H    0.007358  -0.026509  -0.036482   0.032983  -0.002651   0.000779
    16  H   -0.000652   0.000274  -0.000571   0.021408  -0.059354   0.008107
    17  H    0.349356  -0.034637  -0.031772   0.015916   0.022904   0.014562
    18  H   -0.025272   0.362170  -0.094781   0.028705   0.011983   0.007420
    19  H   -0.007255   0.036999   0.343815  -0.137339   0.040788   0.003537
    20  H    0.010300   0.014515  -0.041675   0.289200   0.037166  -0.032464
    21  H    0.033563  -0.011743  -0.056057   0.020798   0.208514   0.089638
    22  H   -0.005667   0.002781   0.002238  -0.000150  -0.066504   0.439161
    23  H    0.003677   0.000701  -0.012251  -0.014299  -0.066698   0.439868
             13         14         15         16         17         18
     1  O    0.000000  -0.000004   0.000035   0.026938   0.000015   0.000477
     2  O    0.270786   0.007459  -0.000004  -0.000001  -0.019041   0.000632
     3  O   -0.000714   0.267152   0.013435  -0.000002   0.004249  -0.024217
     4  O   -0.000012   0.001101   0.262548  -0.000035   0.000547   0.004941
     5  O    0.002000  -0.000203  -0.000051  -0.000209  -0.050138  -0.001851
     6  O   -0.000003   0.000000  -0.000001   0.282720   0.000044  -0.000012
     7  C   -0.029930  -0.029750   0.007358  -0.000652   0.349356  -0.025272
     8  C    0.015776   0.001622  -0.026509   0.000274  -0.034637   0.362170
     9  C    0.004518   0.009217  -0.036482  -0.000571  -0.031772  -0.094781
    10  C   -0.005183   0.000335   0.032983   0.021408   0.015916   0.028705
    11  C   -0.001073   0.001714  -0.002651  -0.059354   0.022904   0.011983
    12  C   -0.000372  -0.000099   0.000779   0.008107   0.014562   0.007420
    13  H    0.406922  -0.000365   0.000000   0.000000  -0.008794  -0.000178
    14  H   -0.000365   0.398595  -0.000637   0.000000  -0.000119  -0.006062
    15  H    0.000000  -0.000637   0.403113   0.000000  -0.000001  -0.000359
    16  H    0.000000   0.000000   0.000000   0.362235   0.000000   0.000000
    17  H   -0.008794  -0.000119  -0.000001   0.000000   0.587855   0.004372
    18  H   -0.000178  -0.006062  -0.000359   0.000000   0.004372   0.571336
    19  H    0.000014  -0.000112  -0.002445  -0.000017   0.001570   0.004614
    20  H    0.000003   0.000015  -0.000297  -0.000612  -0.000073   0.001440
    21  H   -0.000012   0.000003  -0.000002  -0.000147   0.003988  -0.000040
    22  H   -0.000002   0.000000   0.000000   0.005083  -0.000023  -0.000001
    23  H    0.000000   0.000000   0.000000  -0.004350  -0.000016  -0.000012
             19         20         21         22         23
     1  O    0.003054  -0.033452  -0.003205   0.000780  -0.000095
     2  O    0.000016  -0.000343   0.000036  -0.000055  -0.000081
     3  O   -0.001176   0.000003   0.000076  -0.000010   0.000012
     4  O   -0.025179   0.004195   0.000429  -0.000004   0.000101
     5  O    0.001769  -0.000305  -0.022101  -0.003987  -0.004901
     6  O   -0.000067   0.001165   0.003937  -0.041063  -0.033683
     7  C   -0.007255   0.010300   0.033563  -0.005667   0.003677
     8  C    0.036999   0.014515  -0.011743   0.002781   0.000701
     9  C    0.343815  -0.041675  -0.056057   0.002238  -0.012251
    10  C   -0.137339   0.289200   0.020798  -0.000150  -0.014299
    11  C    0.040788   0.037166   0.208514  -0.066504  -0.066698
    12  C    0.003537  -0.032464   0.089638   0.439161   0.439868
    13  H    0.000014   0.000003  -0.000012  -0.000002   0.000000
    14  H   -0.000112   0.000015   0.000003   0.000000   0.000000
    15  H   -0.002445  -0.000297  -0.000002   0.000000   0.000000
    16  H   -0.000017  -0.000612  -0.000147   0.005083  -0.004350
    17  H    0.001570  -0.000073   0.003988  -0.000023  -0.000016
    18  H    0.004614   0.001440  -0.000040  -0.000001  -0.000012
    19  H    0.585023   0.004752   0.001948   0.000001   0.000002
    20  H    0.004752   0.592961   0.003759   0.000121   0.002772
    21  H    0.001948   0.003759   0.570682  -0.002500   0.004362
    22  H    0.000001   0.000121  -0.002500   0.544624  -0.037918
    23  H    0.000002   0.002772   0.004362  -0.037918   0.564602
 Mulliken atomic charges:
              1
     1  O   -0.205490
     2  O   -0.451989
     3  O   -0.466284
     4  O   -0.454674
     5  O   -0.024305
     6  O   -0.369533
     7  C    0.006472
     8  C   -0.043080
     9  C    0.070700
    10  C   -0.065846
    11  C   -0.183646
    12  C   -0.279309
    13  H    0.346620
    14  H    0.350139
    15  H    0.349188
    16  H    0.359187
    17  H    0.139238
    18  H    0.154697
    19  H    0.145688
    20  H    0.146854
    21  H    0.154072
    22  H    0.163095
    23  H    0.158207
 Sum of Mulliken atomic charges =   0.00000
 Mulliken charges with hydrogens summed into heavy atoms:
              1
     1  O   -0.205490
     2  O   -0.105369
     3  O   -0.116145
     4  O   -0.105486
     5  O   -0.024305
     6  O   -0.010346
     7  C    0.145710
     8  C    0.111618
     9  C    0.216388
    10  C    0.081008
    11  C   -0.029575
    12  C    0.041992
 Sum of Mulliken charges with hydrogens summed into heavy atoms =   0.00000
          Atomic-Atomic Spin Densities.
              1          2          3          4          5          6
     1  O    0.793333  -0.000005  -0.000006   0.004709   0.000024  -0.005107
     2  O   -0.000005  -0.000394  -0.000143   0.000016   0.000253   0.000000
     3  O   -0.000006  -0.000143   0.004619  -0.000374   0.000132  -0.000002
     4  O    0.004709   0.000016  -0.000374   0.013330  -0.000501   0.000045
     5  O    0.000024   0.000253   0.000132  -0.000501   0.072360  -0.000023
     6  O   -0.005107   0.000000  -0.000002   0.000045  -0.000023   0.031620
     7  C    0.002171   0.000566   0.002606  -0.001916  -0.000328  -0.000705
     8  C    0.000721   0.000215  -0.005604   0.003604  -0.001483   0.000553
     9  C   -0.010637  -0.000100  -0.001194  -0.001846   0.000849   0.001944
    10  C   -0.032208   0.000155   0.003781  -0.011055   0.001595  -0.002551
    11  C   -0.020729  -0.000445  -0.001759   0.004698  -0.026550   0.001986
    12  C   -0.011193   0.000003  -0.000218   0.000525   0.003960   0.000285
    13  H   -0.000001   0.000073  -0.000019   0.000001   0.000094   0.000000
    14  H    0.000000   0.000019  -0.000201   0.000019  -0.000003   0.000000
    15  H   -0.000335  -0.000002   0.000060  -0.000524   0.000026  -0.000001
    16  H   -0.004160   0.000000   0.000000  -0.000008  -0.000046   0.003520
    17  H    0.000130  -0.000159   0.000319  -0.000041  -0.000413  -0.000014
    18  H    0.000002  -0.000013  -0.000095   0.000103  -0.000093  -0.000001
    19  H    0.000059   0.000007  -0.000005   0.000279  -0.000006  -0.000003
    20  H   -0.000730  -0.000024   0.000044  -0.001572   0.002787  -0.000340
    21  H    0.006926  -0.000013   0.000030  -0.000085   0.000037  -0.001181
    22  H   -0.000993  -0.000001  -0.000001   0.000004   0.001326  -0.001049
    23  H    0.000523   0.000002   0.000000  -0.000006   0.000110   0.000299
              7          8          9         10         11         12
     1  O    0.002171   0.000721  -0.010637  -0.032208  -0.020729  -0.011193
     2  O    0.000566   0.000215  -0.000100   0.000155  -0.000445   0.000003
     3  O    0.002606  -0.005604  -0.001194   0.003781  -0.001759  -0.000218
     4  O   -0.001916   0.003604  -0.001846  -0.011055   0.004698   0.000525
     5  O   -0.000328  -0.001483   0.000849   0.001595  -0.026550   0.003960
     6  O   -0.000705   0.000553   0.001944  -0.002551   0.001986   0.000285
     7  C    0.002170  -0.010170  -0.007694   0.028787  -0.018179  -0.004003
     8  C   -0.010170   0.022222   0.008204  -0.041827   0.025523   0.004739
     9  C   -0.007694   0.008204   0.055127  -0.026198   0.014271  -0.008091
    10  C    0.028787  -0.041827  -0.026198   0.077041  -0.036865   0.000965
    11  C   -0.018179   0.025523   0.014271  -0.036865   0.242138   0.001719
    12  C   -0.004003   0.004739  -0.008091   0.000965   0.001719   0.001485
    13  H   -0.000369   0.000263   0.000111  -0.000211   0.000137   0.000038
    14  H   -0.000616   0.001137   0.000128  -0.000449   0.000169   0.000023
    15  H    0.000375  -0.000903  -0.001410   0.002939  -0.000606  -0.000032
    16  H    0.000050  -0.000179   0.000408   0.000123   0.000391  -0.000517
    17  H    0.002347  -0.001956  -0.002169   0.003584  -0.001931  -0.000545
    18  H   -0.000039   0.000719  -0.000681   0.000077   0.000036   0.000091
    19  H   -0.000400   0.000452  -0.000699  -0.000097   0.000566   0.000179
    20  H    0.002645  -0.002005   0.000988   0.013185  -0.016386   0.000661
    21  H    0.001414  -0.000707  -0.003479   0.007144  -0.007038  -0.003946
    22  H   -0.000439   0.000268   0.001233  -0.002908  -0.005815   0.007256
    23  H    0.000078  -0.000088  -0.000180   0.000899   0.000208  -0.001037
             13         14         15         16         17         18
     1  O   -0.000001   0.000000  -0.000335  -0.004160   0.000130   0.000002
     2  O    0.000073   0.000019  -0.000002   0.000000  -0.000159  -0.000013
     3  O   -0.000019  -0.000201   0.000060   0.000000   0.000319  -0.000095
     4  O    0.000001   0.000019  -0.000524  -0.000008  -0.000041   0.000103
     5  O    0.000094  -0.000003   0.000026  -0.000046  -0.000413  -0.000093
     6  O    0.000000   0.000000  -0.000001   0.003520  -0.000014  -0.000001
     7  C   -0.000369  -0.000616   0.000375   0.000050   0.002347  -0.000039
     8  C    0.000263   0.001137  -0.000903  -0.000179  -0.001956   0.000719
     9  C    0.000111   0.000128  -0.001410   0.000408  -0.002169  -0.000681
    10  C   -0.000211  -0.000449   0.002939   0.000123   0.003584   0.000077
    11  C    0.000137   0.000169  -0.000606   0.000391  -0.001931   0.000036
    12  C    0.000038   0.000023  -0.000032  -0.000517  -0.000545   0.000091
    13  H   -0.000046   0.000004   0.000000   0.000000  -0.000024   0.000001
    14  H    0.000004  -0.000178  -0.000013   0.000000  -0.000027   0.000005
    15  H    0.000000  -0.000013   0.000909   0.000000   0.000003  -0.000011
    16  H    0.000000   0.000000   0.000000  -0.003839   0.000000   0.000000
    17  H   -0.000024  -0.000027   0.000003   0.000000   0.001696  -0.000004
    18  H    0.000001   0.000005  -0.000011   0.000000  -0.000004  -0.000045
    19  H    0.000000  -0.000001   0.000038   0.000000   0.000024  -0.000004
    20  H    0.000000  -0.000001   0.000062   0.000006   0.000026  -0.000023
    21  H   -0.000003  -0.000001   0.000002   0.000073   0.000371  -0.000002
    22  H    0.000001   0.000000   0.000000  -0.000070  -0.000015   0.000000
    23  H    0.000000   0.000000   0.000000  -0.000051   0.000001   0.000000
             19         20         21         22         23
     1  O    0.000059  -0.000730   0.006926  -0.000993   0.000523
     2  O    0.000007  -0.000024  -0.000013  -0.000001   0.000002
     3  O   -0.000005   0.000044   0.000030  -0.000001   0.000000
     4  O    0.000279  -0.001572  -0.000085   0.000004  -0.000006
     5  O   -0.000006   0.002787   0.000037   0.001326   0.000110
     6  O   -0.000003  -0.000340  -0.001181  -0.001049   0.000299
     7  C   -0.000400   0.002645   0.001414  -0.000439   0.000078
     8  C    0.000452  -0.002005  -0.000707   0.000268  -0.000088
     9  C   -0.000699   0.000988  -0.003479   0.001233  -0.000180
    10  C   -0.000097   0.013185   0.007144  -0.002908   0.000899
    11  C    0.000566  -0.016386  -0.007038  -0.005815   0.000208
    12  C    0.000179   0.000661  -0.003946   0.007256  -0.001037
    13  H    0.000000   0.000000  -0.000003   0.000001   0.000000
    14  H   -0.000001  -0.000001  -0.000001   0.000000   0.000000
    15  H    0.000038   0.000062   0.000002   0.000000   0.000000
    16  H    0.000000   0.000006   0.000073  -0.000070  -0.000051
    17  H    0.000024   0.000026   0.000371  -0.000015   0.000001
    18  H   -0.000004  -0.000023  -0.000002   0.000000   0.000000
    19  H   -0.001798   0.000024   0.000028   0.000000   0.000000
    20  H    0.000024   0.020289   0.000386  -0.000104   0.000241
    21  H    0.000028   0.000386   0.002753  -0.000624   0.000051
    22  H    0.000000  -0.000104  -0.000624   0.011823  -0.000712
    23  H    0.000000   0.000241   0.000051  -0.000712  -0.000019
 Mulliken atomic spin densities:
              1
     1  O    0.722494
     2  O    0.000011
     3  O    0.001969
     4  O    0.009406
     5  O    0.054108
     6  O    0.029278
     7  C   -0.001647
     8  C    0.003695
     9  C    0.018886
    10  C   -0.014093
    11  C    0.155541
    12  C   -0.007653
    13  H    0.000050
    14  H    0.000012
    15  H    0.000576
    16  H   -0.004299
    17  H    0.001205
    18  H    0.000025
    19  H   -0.001357
    20  H    0.020158
    21  H    0.002140
    22  H    0.009177
    23  H    0.000321
 Sum of Mulliken atomic spin densities =   1.00000
 Electronic spatial extent (au):  <R**2>=           4578.2015
 Charge=              0.0000 electrons
 Dipole moment (field-independent basis, Debye):
    X=             -2.8608    Y=              0.4898    Z=             -3.7539  Tot=              4.7451
 Quadrupole moment (field-independent basis, Debye-Ang):
   XX=            -65.7498   YY=            -73.3608   ZZ=            -55.8272
   XY=             -0.5321   XZ=             12.3013   YZ=              1.0647
 Traceless Quadrupole moment (field-independent basis, Debye-Ang):
   XX=             -0.7706   YY=             -8.3815   ZZ=              9.1521
   XY=             -0.5321   XZ=             12.3013   YZ=              1.0647
 Octapole moment (field-independent basis, Debye-Ang**2):
  XXX=            330.8845  YYY=           -129.0517  ZZZ=            346.1674  XYY=            121.1220
  XXY=            -62.6288  XXZ=             98.8611  XZZ=             61.5781  YZZ=            -34.4849
  YYZ=            117.6913  XYZ=            -11.9715
 Hexadecapole moment (field-independent basis, Debye-Ang**3):
 XXXX=          -1804.0215 YYYY=           -841.7348 ZZZZ=          -2522.0852 XXXY=            212.4099
 XXXZ=           -591.9230 YYYX=             93.0865 YYYZ=            526.5641 ZZZX=           -432.1206
 ZZZY=            506.0273 XXYY=           -480.1407 XXZZ=           -569.9351 YYZZ=           -522.0858
 XXYZ=            251.4965 YYXZ=           -231.3344 ZZXY=             41.7747
 N-N= 8.088452941973D+02 E-N=-4.828797815087D+03  KE= 1.021693925038D+03
                          Isotropic Fermi Contact Couplings
        Atom                 a.u.       MegaHertz       Gauss      10(-4) cm-1
     1  O(17)              0.09634     -58.39992     -20.83854     -19.48012
     2  O(17)              0.00030      -0.18010      -0.06427      -0.06008
     3  O(17)              0.00161      -0.97784      -0.34892      -0.32617
     4  O(17)              0.00252      -1.52998      -0.54594      -0.51035
     5  O(17)              0.00645      -3.91103      -1.39555      -1.30458
     6  O(17)             -0.00073       0.44122       0.15744       0.14717
     7  C(13)             -0.00098      -1.10646      -0.39481      -0.36908
     8  C(13)              0.00312       3.51196       1.25316       1.17146
     9  C(13)              0.01769      19.88323       7.09483       6.63233
    10  C(13)             -0.03184     -35.79277     -12.77175     -11.93918
    11  C(13)              0.04899      55.07627      19.65258      18.37147
    12  C(13)             -0.00506      -5.68760      -2.02948      -1.89718
    13  H(1)               0.00000      -0.01011      -0.00361      -0.00337
    14  H(1)              -0.00007      -0.30223      -0.10784      -0.10081
    15  H(1)               0.00034       1.53528       0.54783       0.51212
    16  H(1)              -0.00069      -3.09791      -1.10541      -1.03335
    17  H(1)               0.00054       2.41620       0.86216       0.80596
    18  H(1)               0.00010       0.44270       0.15797       0.14767
    19  H(1)              -0.00058      -2.58827      -0.92356      -0.86335
    20  H(1)               0.00928      41.49036      14.80479      13.83969
    21  H(1)               0.00006       0.27042       0.09649       0.09020
    22  H(1)               0.00450      20.12906       7.18255       6.71433
    23  H(1)               0.00012       0.55427       0.19778       0.18488
 --------------------------------------------------------
       Center         ----  Spin Dipole Couplings  ----
                      3XX-RR        3YY-RR        3ZZ-RR
 --------------------------------------------------------
     1   Atom        0.080014      1.283701     -1.363714
     2   Atom       -0.000425     -0.001090      0.001515
     3   Atom       -0.000840     -0.005016      0.005856
     4   Atom        0.039925     -0.021135     -0.018790
     5   Atom        0.090978     -0.009708     -0.081270
     6   Atom        0.045418     -0.047571      0.002153
     7   Atom       -0.001945     -0.003666      0.005611
     8   Atom       -0.002382      0.000094      0.002288
     9   Atom       -0.017164     -0.019294      0.036458
    10   Atom        0.016310      0.019894     -0.036204
    11   Atom        0.072876      0.045895     -0.118772
    12   Atom        0.006496     -0.004616     -0.001880
    13   Atom        0.000043     -0.001367      0.001324
    14   Atom       -0.000722     -0.000581      0.001303
    15   Atom       -0.001936     -0.000219      0.002155
    16   Atom       -0.000280     -0.001713      0.001993
    17   Atom       -0.001735     -0.003133      0.004868
    18   Atom       -0.001546      0.001592     -0.000045
    19   Atom       -0.004674     -0.005869      0.010543
    20   Atom        0.003994      0.003992     -0.007986
    21   Atom       -0.001759      0.006218     -0.004459
    22   Atom        0.003489     -0.001659     -0.001830
    23   Atom        0.004784     -0.004636     -0.000148
 --------------------------------------------------------
                        XY            XZ            YZ
 --------------------------------------------------------
     1   Atom        1.987197      0.184387      0.255856
     2   Atom       -0.000503      0.002363     -0.001714
     3   Atom        0.003167     -0.007755     -0.006029
     4   Atom       -0.000329     -0.009304     -0.006582
     5   Atom        0.178803      0.103118      0.081454
     6   Atom        0.061069     -0.102350     -0.054685
     7   Atom        0.000512      0.002103     -0.003397
     8   Atom        0.001166      0.000882     -0.004047
     9   Atom        0.002096     -0.014499     -0.017089
    10   Atom        0.030850      0.034535     -0.010598
    11   Atom        0.181878      0.028181      0.022421
    12   Atom        0.008104     -0.006996     -0.007597
    13   Atom       -0.000216      0.001873     -0.000401
    14   Atom       -0.000339      0.000610     -0.001522
    15   Atom        0.001676     -0.001262     -0.004672
    16   Atom        0.019087     -0.007251     -0.012441
    17   Atom        0.000085      0.001342      0.001177
    18   Atom       -0.001342      0.001831     -0.003307
    19   Atom       -0.000450     -0.003872     -0.000469
    20   Atom       -0.013767     -0.002317      0.001731
    21   Atom        0.000258      0.001261      0.014662
    22   Atom        0.003961     -0.000428     -0.001068
    23   Atom       -0.000250     -0.004930      0.000252
 --------------------------------------------------------


 ---------------------------------------------------------------------------------
              Anisotropic Spin Dipole Couplings in Principal Axis System
 ---------------------------------------------------------------------------------

       Atom             a.u.   MegaHertz   Gauss  10(-4) cm-1        Axes

              Baa    -1.3966   101.058    36.060    33.709  0.7013 -0.5618  0.4387
     1 O(17)  Bbb    -1.3856   100.258    35.775    33.442 -0.3939  0.2074  0.8954
              Bcc     2.7822  -201.316   -71.835   -67.152  0.5941  0.8008  0.0758
 
              Baa    -0.0024     0.173     0.062     0.058 -0.5721  0.5648  0.5948
     2 O(17)  Bbb    -0.0013     0.096     0.034     0.032  0.6520  0.7531 -0.0880
              Bcc     0.0037    -0.268    -0.096    -0.090  0.4976 -0.3375  0.7991
 
              Baa    -0.0077     0.559     0.199     0.186  0.0998  0.8870  0.4508
     3 O(17)  Bbb    -0.0057     0.414     0.148     0.138  0.8569 -0.3069  0.4142
              Bcc     0.0134    -0.973    -0.347    -0.325 -0.5057 -0.3450  0.7907
 
              Baa    -0.0273     1.972     0.704     0.658  0.0971  0.7312  0.6752
     4 O(17)  Bbb    -0.0141     1.021     0.364     0.341  0.1200 -0.6820  0.7214
              Bcc     0.0414    -2.994    -1.068    -0.999  0.9880  0.0110 -0.1540
 
              Baa    -0.1455    10.530     3.757     3.512 -0.5545  0.8189 -0.1483
     5 O(17)  Bbb    -0.1293     9.359     3.339     3.122 -0.3677 -0.0812  0.9264
              Bcc     0.2749   -19.889    -7.097    -6.634  0.7466  0.5682  0.3461
 
              Baa    -0.0841     6.084     2.171     2.029  0.2924  0.6118  0.7350
     6 O(17)  Bbb    -0.0765     5.537     1.976     1.847 -0.6305  0.7012 -0.3328
              Bcc     0.1606   -11.622    -4.147    -3.877  0.7190  0.3661 -0.5908
 
              Baa    -0.0052    -0.699    -0.250    -0.233 -0.3566  0.8694  0.3421
     7 C(13)  Bbb    -0.0019    -0.253    -0.090    -0.084  0.9123  0.4030 -0.0733
              Bcc     0.0071     0.953     0.340     0.318  0.2016 -0.2860  0.9368
 
              Baa    -0.0042    -0.562    -0.200    -0.187  0.6295 -0.6175 -0.4717
     8 C(13)  Bbb    -0.0012    -0.161    -0.057    -0.054  0.7770  0.4994  0.3832
              Bcc     0.0054     0.722     0.258     0.241 -0.0011 -0.6077  0.7941
 
              Baa    -0.0249    -3.344    -1.193    -1.115  0.3858  0.8612  0.3309
     9 C(13)  Bbb    -0.0198    -2.653    -0.947    -0.885  0.8938 -0.4378  0.0974
              Bcc     0.0447     5.997     2.140     2.000 -0.2288 -0.2582  0.9386
 
              Baa    -0.0605    -8.122    -2.898    -2.709 -0.4878  0.2954  0.8214
    10 C(13)  Bbb     0.0080     1.074     0.383     0.358 -0.4573  0.7151 -0.5287
              Bcc     0.0525     7.048     2.515     2.351  0.7436  0.6336  0.2137
 
              Baa    -0.1254   -16.828    -6.005    -5.613 -0.5572  0.5054  0.6589
    11 C(13)  Bbb    -0.1199   -16.089    -5.741    -5.367  0.3962 -0.5355  0.7458
              Bcc     0.2453    32.918    11.746    10.980  0.7298  0.6766  0.0982
 
              Baa    -0.0112    -1.510    -0.539    -0.504 -0.1595  0.8217  0.5472
    12 C(13)  Bbb    -0.0049    -0.659    -0.235    -0.220  0.6523 -0.3283  0.6832
              Bcc     0.0162     2.168     0.774     0.723  0.7410  0.4659 -0.4836
 
              Baa    -0.0014    -0.769    -0.274    -0.256 -0.2422  0.9233  0.2982
    13 H(1)   Bbb    -0.0013    -0.679    -0.242    -0.227  0.7802  0.3681 -0.5058
              Bcc     0.0027     1.448     0.517     0.483  0.5768 -0.1101  0.8094
 
              Baa    -0.0014    -0.762    -0.272    -0.254 -0.0018  0.8734  0.4869
    14 H(1)   Bbb    -0.0009    -0.471    -0.168    -0.157  0.9746  0.1107 -0.1949
              Bcc     0.0023     1.233     0.440     0.411  0.2241 -0.4742  0.8514
 
              Baa    -0.0040    -2.151    -0.768    -0.718 -0.3098  0.7881  0.5320
    15 H(1)   Bbb    -0.0023    -1.204    -0.430    -0.402  0.9201  0.1073  0.3768
              Bcc     0.0063     3.355     1.197     1.119 -0.2398 -0.6062  0.7583
 
              Baa    -0.0210   -11.180    -3.989    -3.729 -0.6216  0.7540  0.2123
    16 H(1)   Bbb    -0.0052    -2.776    -0.991    -0.926  0.5123  0.1863  0.8383
              Bcc     0.0262    13.956     4.980     4.655  0.5925  0.6299 -0.5021
 
              Baa    -0.0033    -1.766    -0.630    -0.589  0.0784  0.9849 -0.1546
    17 H(1)   Bbb    -0.0020    -1.058    -0.377    -0.353  0.9792 -0.1053 -0.1737
              Bcc     0.0053     2.824     1.008     0.942  0.1873  0.1378  0.9726
 
              Baa    -0.0031    -1.638    -0.584    -0.546 -0.5703  0.3598  0.7385
    18 H(1)   Bbb    -0.0019    -0.989    -0.353    -0.330  0.7557  0.5822  0.2999
              Bcc     0.0049     2.627     0.937     0.876 -0.3221  0.7291 -0.6039
 
              Baa    -0.0063    -3.363    -1.200    -1.122  0.5949  0.7880  0.1587
    19 H(1)   Bbb    -0.0052    -2.761    -0.985    -0.921  0.7695 -0.6153  0.1712
              Bcc     0.0115     6.124     2.185     2.043 -0.2325 -0.0203  0.9724
 
              Baa    -0.0099    -5.272    -1.881    -1.759  0.7026  0.6660  0.2507
    20 H(1)   Bbb    -0.0082    -4.371    -1.560    -1.458 -0.1032 -0.2532  0.9619
              Bcc     0.0181     9.644     3.441     3.217  0.7041 -0.7017 -0.1092
 
              Baa    -0.0148    -7.888    -2.815    -2.631 -0.0680 -0.5705  0.8185
    21 H(1)   Bbb    -0.0017    -0.932    -0.333    -0.311  0.9964 -0.0808  0.0264
              Bcc     0.0165     8.820     3.147     2.942  0.0511  0.8173  0.5740
 
              Baa    -0.0041    -2.166    -0.773    -0.722 -0.4253  0.8454  0.3232
    22 H(1)   Bbb    -0.0017    -0.898    -0.320    -0.300  0.2545 -0.2309  0.9391
              Bcc     0.0057     3.064     1.093     1.022  0.8685  0.4816 -0.1170
 
              Baa    -0.0047    -2.481    -0.885    -0.828 -0.0065  0.9980 -0.0631
    23 H(1)   Bbb    -0.0032    -1.702    -0.607    -0.568  0.5263  0.0570  0.8484
              Bcc     0.0078     4.183     1.493     1.395  0.8503 -0.0277 -0.5256
 

 ---------------------------------------------------------------------------------

 Calling FoFJK, ICntrl=      2127 FMM=F ISym2X=0 I1Cent= 0 IOpClX= 1 NMat=1 NMatS=1 NMatT=0.
 -------------------------------------------------------------------
 Center     Atomic                   Forces (Hartrees/Bohr)
 Number     Number              X              Y              Z
 -------------------------------------------------------------------
      1        8           0.000030252   -0.000762107    0.000267708
      2        8          -0.000705743   -0.000669718   -0.002542866
      3        8          -0.000287389    0.000830866   -0.000656038
      4        8          -0.001770529   -0.000888878   -0.001361831
      5        8          -0.001769328    0.000237548   -0.004114670
      6        8          -0.001840131    0.001786721   -0.001564810
      7        6          -0.000453906    0.001216130    0.004873260
      8        6          -0.000134840   -0.000717446   -0.000659474
      9        6           0.002062571    0.002764601    0.001191117
     10        6          -0.002228822   -0.002265998   -0.001169513
     11        6           0.003661073    0.002808798    0.002242624
     12        6           0.002858880   -0.002599548    0.001389799
     13        1           0.000190163    0.001241510    0.001332243
     14        1           0.000317915   -0.000877721    0.000485234
     15        1          -0.000110688   -0.000591291    0.000593074
     16        1           0.000160924   -0.000567546   -0.000205918
     17        1           0.000894929   -0.000626812   -0.000556645
     18        1          -0.000330354   -0.000199484    0.000336398
     19        1           0.000070477   -0.000489118   -0.000094425
     20        1           0.000123059    0.000792884   -0.000196114
     21        1           0.000095874   -0.000979619    0.000291028
     22        1          -0.000333039   -0.000100306    0.000331200
     23        1          -0.000501348    0.000656532   -0.000211379
 -------------------------------------------------------------------
 Cartesian Forces:  Max     0.004873260 RMS     0.001468714

 GradGradGradGradGradGradGradGradGradGradGradGradGradGradGradGradGradGrad
 Berny optimization.
 Internal  Forces:  Max     0.002697746 RMS     0.000633991
 Search for a local minimum.
 Step number   1 out of a maximum of  137
 All quantities printed in internal units (Hartrees-Bohrs-Radians)
 Mixed Optimization -- En-DIIS/RFO-DIIS
 Second derivative matrix not updated -- first step.
 ITU=  0
     Eigenvalues ---    0.00394   0.00533   0.00646   0.01414   0.01420
     Eigenvalues ---    0.01515   0.01533   0.01878   0.02921   0.03440
     Eigenvalues ---    0.04668   0.04738   0.04836   0.04919   0.04989
     Eigenvalues ---    0.05211   0.05746   0.05953   0.06019   0.06203
     Eigenvalues ---    0.06885   0.07126   0.07633   0.07879   0.09253
     Eigenvalues ---    0.10883   0.11520   0.11544   0.13728   0.13927
     Eigenvalues ---    0.16000   0.16000   0.16000   0.16000   0.16250
     Eigenvalues ---    0.17086   0.18162   0.19286   0.20525   0.21272
     Eigenvalues ---    0.22074   0.27799   0.28461   0.28818   0.29599
     Eigenvalues ---    0.33240   0.33648   0.33658   0.33807   0.33864
     Eigenvalues ---    0.33903   0.34328   0.38907   0.42310   0.42374
     Eigenvalues ---    0.43477   0.44870   0.48034   0.53192   0.54084
     Eigenvalues ---    0.54408   0.54436   0.58324
 RFO step:  Lambda=-3.58069348D-04 EMin= 3.94201397D-03
 Linear search not attempted -- first point.
 Iteration  1 RMS(Cart)=  0.01837309 RMS(Int)=  0.00026756
 Iteration  2 RMS(Cart)=  0.00032216 RMS(Int)=  0.00000763
 Iteration  3 RMS(Cart)=  0.00000007 RMS(Int)=  0.00000763
 Variable       Old X    -DE/DX   Delta X   Delta X   Delta X     New X
                                 (Linear)    (Quad)   (Total)
    R1        2.52292   0.00054   0.00000   0.00092   0.00092   2.52384
    R2        2.61902   0.00124   0.00000   0.00259   0.00259   2.62161
    R3        1.82362  -0.00147   0.00000  -0.00269  -0.00269   1.82093
    R4        2.68530   0.00016   0.00000   0.00037   0.00037   2.68567
    R5        1.82336  -0.00090   0.00000  -0.00166  -0.00166   1.82171
    R6        2.68450  -0.00245   0.00000  -0.00577  -0.00577   2.67873
    R7        1.82655  -0.00080   0.00000  -0.00148  -0.00148   1.82507
    R8        2.71121  -0.00233   0.00000  -0.00614  -0.00613   2.70508
    R9        2.63032   0.00254   0.00000   0.00542   0.00542   2.63575
   R10        2.67086  -0.00270   0.00000  -0.00620  -0.00620   2.66466
   R11        1.83475  -0.00024   0.00000  -0.00045  -0.00045   1.83430
   R12        2.89149  -0.00097   0.00000  -0.00370  -0.00370   2.88779
   R13        2.07928   0.00108   0.00000   0.00320   0.00320   2.08247
   R14        2.88892   0.00006   0.00000   0.00014   0.00013   2.88906
   R15        2.07656   0.00012   0.00000   0.00034   0.00034   2.07691
   R16        2.91127  -0.00012   0.00000   0.00010   0.00009   2.91136
   R17        2.07911   0.00045   0.00000   0.00134   0.00134   2.08045
   R18        3.09837  -0.00243   0.00000  -0.01093  -0.01093   3.08744
   R19        2.08631   0.00043   0.00000   0.00129   0.00129   2.08760
   R20        2.88770  -0.00010   0.00000  -0.00034  -0.00034   2.88736
   R21        2.07493   0.00064   0.00000   0.00189   0.00189   2.07683
   R22        2.06780   0.00025   0.00000   0.00074   0.00074   2.06854
   R23        2.07561   0.00056   0.00000   0.00166   0.00166   2.07726
    A1        1.91962   0.00034   0.00000   0.00209   0.00209   1.92171
    A2        1.89706  -0.00039   0.00000  -0.00243  -0.00243   1.89463
    A3        1.87676  -0.00030   0.00000  -0.00190  -0.00190   1.87485
    A4        1.98383  -0.00026   0.00000  -0.00372  -0.00374   1.98008
    A5        1.88249   0.00075   0.00000   0.00467   0.00467   1.88715
    A6        1.89328   0.00013   0.00000   0.00371   0.00371   1.89699
    A7        1.88886  -0.00040   0.00000  -0.00234  -0.00236   1.88650
    A8        1.94990   0.00023   0.00000   0.00024   0.00023   1.95013
    A9        1.89279   0.00054   0.00000   0.00448   0.00450   1.89729
   A10        1.89701  -0.00005   0.00000  -0.00142  -0.00143   1.89558
   A11        1.94066  -0.00042   0.00000  -0.00430  -0.00430   1.93636
   A12        1.94791   0.00005   0.00000  -0.00038  -0.00039   1.94752
   A13        1.86296  -0.00006   0.00000   0.00183   0.00183   1.86479
   A14        1.93038   0.00017   0.00000   0.00253   0.00253   1.93291
   A15        1.93932   0.00004   0.00000   0.00199   0.00199   1.94131
   A16        1.87755  -0.00039   0.00000  -0.00531  -0.00531   1.87224
   A17        1.90600   0.00021   0.00000  -0.00052  -0.00053   1.90547
   A18        1.93055  -0.00037   0.00000  -0.00291  -0.00291   1.92764
   A19        1.86917   0.00071   0.00000   0.00366   0.00366   1.87283
   A20        1.92052   0.00009   0.00000   0.00239   0.00238   1.92291
   A21        1.94895  -0.00020   0.00000  -0.00146  -0.00148   1.94747
   A22        1.90736   0.00013   0.00000   0.00061   0.00062   1.90798
   A23        1.88655  -0.00035   0.00000  -0.00218  -0.00217   1.88438
   A24        1.99383   0.00028   0.00000   0.00129   0.00130   1.99514
   A25        1.85894  -0.00058   0.00000  -0.00492  -0.00492   1.85401
   A26        1.97741   0.00020   0.00000   0.00165   0.00165   1.97905
   A27        1.86118   0.00030   0.00000   0.00460   0.00459   1.86577
   A28        1.93959  -0.00050   0.00000  -0.00593  -0.00595   1.93365
   A29        1.81798   0.00032   0.00000   0.00392   0.00394   1.82192
   A30        1.88737  -0.00003   0.00000   0.00594   0.00593   1.89331
   A31        1.91179   0.00022   0.00000   0.00266   0.00265   1.91444
   A32        1.95286   0.00007   0.00000  -0.00103  -0.00105   1.95181
   A33        1.92642   0.00007   0.00000   0.00012   0.00009   1.92651
   A34        1.85152   0.00026   0.00000   0.00132   0.00131   1.85283
   A35        1.93268  -0.00057   0.00000  -0.00870  -0.00870   1.92398
   A36        1.95057  -0.00017   0.00000  -0.00018  -0.00019   1.95038
   A37        1.86643  -0.00039   0.00000  -0.00362  -0.00362   1.86282
   A38        1.95414   0.00076   0.00000   0.00715   0.00715   1.96130
   A39        1.88337   0.00060   0.00000   0.00310   0.00310   1.88646
   A40        1.91676  -0.00060   0.00000  -0.00378  -0.00378   1.91298
   A41        1.88955  -0.00019   0.00000  -0.00285  -0.00284   1.88671
    D1       -1.36543   0.00074   0.00000   0.03446   0.03447  -1.33097
    D2        2.86750   0.00025   0.00000   0.02840   0.02840   2.89590
    D3        0.72528   0.00090   0.00000   0.03526   0.03526   0.76054
    D4        1.18278  -0.00041   0.00000  -0.02243  -0.02244   1.16035
    D5       -2.97837  -0.00037   0.00000  -0.01902  -0.01902  -2.99739
    D6       -0.90686  -0.00006   0.00000  -0.01718  -0.01717  -0.92403
    D7       -0.87177  -0.00015   0.00000  -0.01071  -0.01072  -0.88249
    D8       -2.99924  -0.00013   0.00000  -0.00951  -0.00949  -3.00874
    D9        1.23741  -0.00017   0.00000  -0.01027  -0.01028   1.22713
   D10        3.08443   0.00047   0.00000   0.00282   0.00280   3.08723
   D11       -1.15101   0.00036   0.00000   0.00453   0.00452  -1.14649
   D12        0.96096   0.00014   0.00000   0.00115   0.00114   0.96210
   D13        1.16351  -0.00023   0.00000  -0.00701  -0.00701   1.15650
   D14       -3.01948  -0.00004   0.00000  -0.00173  -0.00172  -3.02120
   D15       -0.86938  -0.00056   0.00000  -0.01167  -0.01166  -0.88104
   D16        1.03850  -0.00049   0.00000  -0.01629  -0.01628   1.02222
   D17        3.09595  -0.00010   0.00000  -0.01485  -0.01485   3.08110
   D18       -1.12026  -0.00014   0.00000  -0.01654  -0.01654  -1.13680
   D19       -1.17723   0.00033   0.00000   0.01033   0.01032  -1.16690
   D20        3.02875   0.00035   0.00000   0.00694   0.00693   3.03569
   D21        0.94332   0.00031   0.00000   0.00973   0.00973   0.95304
   D22        3.05539   0.00010   0.00000   0.00477   0.00476   3.06015
   D23        0.97819   0.00012   0.00000   0.00138   0.00137   0.97956
   D24       -1.10725   0.00009   0.00000   0.00417   0.00416  -1.10309
   D25        0.97060   0.00008   0.00000   0.00626   0.00627   0.97687
   D26       -1.10660   0.00009   0.00000   0.00288   0.00287  -1.10373
   D27        3.09115   0.00006   0.00000   0.00566   0.00567   3.09681
   D28        1.14149   0.00000   0.00000   0.00343   0.00343   1.14492
   D29       -3.06183   0.00051   0.00000   0.00515   0.00514  -3.05668
   D30       -0.97549   0.00004   0.00000   0.00192   0.00192  -0.97358
   D31       -3.01424   0.00004   0.00000   0.00532   0.00533  -3.00891
   D32       -0.93436   0.00055   0.00000   0.00704   0.00704  -0.92732
   D33        1.15197   0.00008   0.00000   0.00381   0.00381   1.15578
   D34       -0.94586  -0.00028   0.00000  -0.00034  -0.00034  -0.94620
   D35        1.13401   0.00023   0.00000   0.00138   0.00138   1.13539
   D36       -3.06284  -0.00024   0.00000  -0.00185  -0.00185  -3.06470
   D37       -1.21218  -0.00041   0.00000  -0.01281  -0.01281  -1.22499
   D38        3.02244  -0.00004   0.00000  -0.01050  -0.01051   3.01193
   D39        1.05181  -0.00034   0.00000  -0.01474  -0.01473   1.03708
   D40        2.95511  -0.00029   0.00000  -0.01072  -0.01071   2.94440
   D41        0.90655   0.00007   0.00000  -0.00842  -0.00841   0.89813
   D42       -1.06408  -0.00022   0.00000  -0.01266  -0.01264  -1.07672
   D43        0.85653  -0.00011   0.00000  -0.00917  -0.00917   0.84736
   D44       -1.19203   0.00026   0.00000  -0.00687  -0.00687  -1.19890
   D45        3.12053  -0.00003   0.00000  -0.01111  -0.01110   3.10943
   D46       -3.13726  -0.00008   0.00000   0.00433   0.00434  -3.13292
   D47        1.05491  -0.00036   0.00000  -0.00263  -0.00263   1.05227
   D48       -1.03965   0.00013   0.00000   0.00695   0.00696  -1.03269
   D49       -1.00140   0.00009   0.00000   0.00566   0.00567  -0.99573
[...]
 10679,0.00039303,-0.00060342,0.27706574,0.00024094,-0.00026459,0.00009
 784,0.00071099,0.00050843,-0.00154804,0.12992922,-0.08013898,0.1203716
 4,-0.00010170,0.00012320,-0.00091890,-0.00010320,0.00065642,-0.0017540
 2,-0.00002679,0.00010164,-0.00020535,0.00126890,-0.00130305,0.00384751
 ,0.00688431,-0.00472003,0.00412958,-0.00139500,-0.00072861,0.00155361,
 -0.00039026,0.00057445,0.00001590,0.00101134,-0.00003728,0.00043072,-0
 .00012593,-0.00001956,0.00006963,-0.00025203,-0.00014381,-0.00023193,-
 0.13732476,0.08400165,-0.00022433,0.00054284,-0.00071618,-0.00062315,-
 0.00061038,-0.00044362,-0.16853541,0.10860096,-0.19019525,0.00059088,0
 .00010254,0.00084042,-0.00019883,-0.00107285,0.00094377,0.00003302,-0.
 00015603,0.00017857,0.00011325,0.00181921,0.00018900,-0.02686943,0.016
 14269,-0.02617921,0.00439760,0.00133025,-0.00648243,-0.00103904,0.0003
 1535,0.00017988,-0.00102023,0.00006822,-0.00026672,0.00006440,0.000047
 79,-0.00003094,0.00012750,-0.00025927,0.00057029,0.19389936,-0.1254157
 9,0.22016290,-0.00062483,0.00068322,-0.00130392,0.00072296,0.00049975,
 -0.00003462,0.00139142,0.00117800,0.00045469,-0.04910277,-0.06188445,0
 .08578645,-0.00000002,0.00070604,-0.00115686,-0.00020337,0.00026535,-0
 .00027066,-0.00074980,-0.00124532,0.00142122,-0.00162059,-0.00140492,0
 .00266238,-0.01085641,-0.01385623,0.02396753,-0.00265445,-0.00463353,0
 .00077246,0.00062167,-0.00091014,0.00071515,-0.00010380,-0.00015289,0.
 00005002,0.00004910,-0.00002784,0.00002255,0.00014890,0.00064945,-0.00
 033804,0.06212664,0.00001303,0.00040857,-0.00019327,0.00042214,0.00002
 927,0.00006975,0.00043604,-0.00122253,0.00016540,-0.06448697,-0.094867
 40,0.13939631,0.00036784,0.00010929,-0.00005195,0.00011818,0.00007941,
 -0.00013305,-0.00014630,-0.00022645,0.00026637,-0.00081228,0.00198823,
 0.00047049,-0.01275592,-0.01762214,0.02970969,-0.00236490,-0.00352065,
 -0.00291055,-0.00056294,-0.00031659,0.00151279,-0.00038653,-0.00022548
 ,-0.00016874,0.00000326,-0.00001790,-0.00002287,0.00064874,0.00046240,
 -0.00016234,0.07894957,0.11505689,0.00002522,-0.00016787,-0.00027366,-
 0.00027682,0.00001708,-0.00033870,0.00104525,-0.00004323,-0.00039522,0
 .11930237,0.17827228,-0.40823758,0.00010906,0.00034772,-0.00060175,-0.
 00012125,0.00006996,-0.00005805,0.00017506,-0.00000401,-0.00018951,-0.
 00310114,-0.00201871,0.00264311,-0.00450475,-0.00726362,0.00684198,-0.
 00080679,-0.00018888,0.00133979,0.00004721,-0.00024396,-0.00012969,-0.
 00002782,0.00004047,0.00006382,-0.00010204,0.00002008,0.00001410,0.000
 52781,0.00052268,-0.00012507,-0.11195930,-0.16821443,0.39948814,-0.002
 34797,0.00210102,-0.00011221,-0.00007151,-0.00016612,0.00025490,-0.000
 26925,0.00015505,-0.00024203,0.00005726,0.00034515,-0.00037983,-0.0013
 0608,-0.00064224,0.00127702,-0.32864275,-0.17719975,-0.09089966,0.0007
 3109,0.00049834,-0.00017043,0.00052537,-0.00011275,-0.00032316,-0.0011
 0664,0.00096412,0.00082622,0.00216668,-0.00091968,-0.00604257,0.004998
 12,0.00120633,0.00181071,-0.02740787,-0.01294107,-0.01014079,-0.000017
 47,-0.00001467,-0.00003335,0.00006033,0.00003569,-0.00006755,0.0001829
 5,-0.00003159,0.00011546,0.35331171,0.00167274,0.00100763,-0.00403333,
 -0.00012485,-0.00005849,-0.00001568,-0.00000419,0.00006320,-0.00030102
 ,0.00017852,0.00009396,-0.00018524,-0.00131100,-0.00053031,0.00022223,
 -0.21789643,-0.16989608,-0.04760245,0.00034529,0.00025753,0.00037754,0
 .00008418,0.00003494,0.00016864,-0.00044802,-0.00005691,-0.00021397,-0
 .00060186,-0.00153655,0.00124627,0.00449471,0.00179749,0.00285408,0.02
 495384,0.01174679,0.00639699,0.00001091,0.00000540,0.00002073,0.000019
 06,0.00000206,0.00001775,0.00000146,-0.00003157,0.00003997,0.18444771,
 0.15888396,-0.00334426,-0.00135425,-0.00172461,0.00036750,-0.00026311,
 0.00052612,-0.00031348,-0.00014951,0.00032769,-0.00041395,-0.00035623,
 0.00017972,0.00223824,-0.00016458,0.00163296,-0.07960700,-0.02913745,-
 0.03401272,0.00003293,0.00031807,-0.00152358,0.00041895,0.00013075,-0.
 00046745,-0.00028464,0.00078273,0.00023491,0.00558571,0.00448518,-0.00
 342111,-0.00620605,-0.00287657,-0.00012279,-0.01979310,-0.01212024,-0.
 00676756,-0.00010817,-0.00000769,-0.00011788,0.00002171,0.00008876,-0.
 00011266,0.00006726,0.00008736,-0.00001198,0.10314556,0.03810907,0.045
 49245,-0.00015034,0.00030439,-0.00018264,-0.01966446,0.03014315,0.0003
 8493,0.00094742,0.00216183,-0.00025677,-0.00049611,0.00039941,-0.00013
 843,-0.00355014,0.00862928,0.01832054,0.00003093,-0.00021681,0.0002721
 5,-0.07820675,0.05705971,0.02976697,0.00871216,-0.01921406,-0.00956479
 ,0.00134825,-0.00049933,0.00052030,0.00058582,-0.00025198,0.00019541,-
 0.00110114,0.00055708,-0.00138062,0.00033730,-0.00027437,-0.00020168,0
 .00155668,0.00136441,0.00080091,-0.00018836,-0.00005555,-0.00000317,0.
 00018023,-0.00005066,-0.00001811,-0.00006432,-0.00001450,-0.00005927,0
 .09244406,0.00004162,0.00009654,-0.00005354,0.01407043,-0.00989392,0.0
 0143936,0.00034646,0.00291816,0.00165894,-0.00075950,0.00065990,0.0000
 8143,-0.00251261,0.01001851,0.00719220,0.00003369,0.00002580,-0.000081
 89,0.06141153,-0.21511848,-0.08750379,0.00849292,-0.01904185,-0.013371
 47,0.00156921,-0.00094992,0.00046780,-0.00025242,-0.00027734,-0.000200
 26,-0.00157043,0.00202528,0.00031933,-0.00026051,0.00041960,0.00011227
 ,-0.00030262,0.00070110,0.00116706,0.00016646,-0.00035796,-0.00019718,
 0.00020134,-0.00013182,-0.00005220,-0.00003480,-0.00003432,-0.00000363
 ,-0.07657651,0.23046781,0.00008761,-0.00011897,0.00027962,-0.01704312,
 0.02086661,0.00661981,-0.00095973,0.00006371,0.00152543,0.00006637,0.0
 0025916,0.00019087,0.01587875,-0.01653587,-0.03581216,-0.00007731,0.00
 033955,-0.00029461,0.03268028,-0.08821965,-0.08914701,0.00261945,-0.00
 429523,0.00002525,0.00055734,-0.00053929,-0.00014153,-0.00093038,0.000
 07239,-0.00084258,0.00634732,-0.00445295,0.00280728,-0.00024996,0.0003
 1941,0.00006669,0.00162835,0.00065959,0.00051516,-0.00022017,0.0000763
 4,0.00004041,0.00001630,-0.00002424,0.00001297,0.00003969,-0.00002190,
 0.00006027,-0.03812769,0.09016672,0.11309569,0.00013844,-0.00017969,-0
 .00052869,0.00182943,0.00107506,0.00080486,-0.00660461,0.00827985,0.01
 510079,0.00335889,-0.00117898,0.00101101,0.00074565,0.00174889,-0.0006
 8036,0.00004164,-0.00006121,0.00004927,0.00749124,-0.02245471,-0.00896
 164,-0.09386986,0.08501181,0.03703868,-0.01124052,0.02250685,0.0073227
 0,-0.00003652,-0.00013728,0.00109078,-0.00024892,0.00018709,-0.0000880
 3,0.00005736,0.00005484,-0.00000218,0.00045770,0.00013501,0.00021578,0
 .00005035,-0.00056580,-0.00071583,-0.00065261,0.00033466,0.00043255,-0
 .00005646,-0.00000710,-0.00001324,-0.00298218,-0.00296859,-0.00054347,
 0.10390530,-0.00011190,0.00013225,0.00015855,0.00078430,0.00265513,0.0
 0108222,-0.00647903,0.01265900,0.00621007,-0.00150713,0.00229321,0.000
 22682,0.00007843,0.00251614,0.00083647,-0.00002176,0.00013628,-0.00002
 400,0.01103243,-0.02481415,-0.01072183,0.08586652,-0.21785320,-0.07652
 456,0.00442411,-0.01056244,-0.00434357,0.00023236,-0.00029624,-0.00057
 142,0.00031088,-0.00040924,-0.00004489,0.00001781,0.00000252,-0.000085
 16,0.00018567,0.00044452,0.00022680,0.00010812,0.00115332,-0.00093318,
 0.00016203,0.00000294,0.00000428,0.00005645,-0.00004410,0.00005812,-0.
 00330938,-0.00219276,-0.00019500,-0.09253915,0.23359438,0.00014992,-0.
 00018174,-0.00047548,0.00061646,0.00032351,0.00049781,0.02195168,-0.01
 837658,-0.02890492,0.00214399,-0.00011628,0.00089711,-0.00051075,0.000
 41481,0.00128941,0.00002945,0.00004319,-0.00004411,0.00153984,-0.00683
 089,-0.00071133,0.03461030,-0.07467173,-0.08074957,-0.00937135,0.01639
 046,0.00824827,-0.00023817,0.00019555,0.00114133,-0.00029663,0.0003186
 4,-0.00034656,-0.00002493,0.00004103,0.00006633,0.00007110,0.00029960,
 0.00004425,0.00121672,-0.00104935,0.00104223,-0.00018323,-0.00019811,-
 0.00023623,0.00000858,-0.00002882,0.00005656,-0.00031269,-0.00028577,-
 0.00008987,-0.04827500,0.08264928,0.10109400,0.00106973,-0.00096195,-0
 .00194842,0.00018698,-0.00064301,-0.00029994,0.00200298,-0.00176485,0.
 00054089,0.00747318,-0.02778791,-0.01335878,-0.00029826,-0.00083675,-0
 .00015583,0.00005006,-0.00004353,-0.00002010,0.00057114,0.00227327,0.0
 0123783,-0.01414671,0.01897602,0.01145947,-0.11403526,0.09516746,0.055
 39605,-0.00662563,0.00939735,0.00619762,-0.00012369,0.00166477,0.00016
 081,-0.00001381,-0.00013285,0.00002122,-0.00007683,-0.00007846,-0.0000
 3450,0.00017382,-0.00028507,0.00023797,0.00101028,0.00030886,-0.000675
 16,-0.00000960,0.00001811,0.00003358,-0.00036913,-0.00073732,-0.000434
 81,-0.00271695,0.00100096,-0.00305882,0.12624838,-0.00070242,0.0010546
 3,-0.00094826,0.00001802,0.00056120,0.00021616,-0.00094577,0.00113656,
 -0.00050348,-0.00378455,-0.03254986,-0.01466292,-0.00030981,0.00014533
 ,-0.00020653,0.00003577,-0.00008704,0.00005140,-0.00031392,-0.00128162
 ,0.00019456,0.00922424,-0.00693882,-0.00532291,0.09428644,-0.17573417,
 -0.07486158,-0.00438874,0.00638823,0.00567138,0.00035034,0.00062058,0.
 00016205,-0.00002160,0.00038579,0.00012939,0.00019367,0.00001865,0.000
 05125,-0.00029264,0.00025804,-0.00005066,0.00024996,0.00006516,-0.0013
 9027,-0.00007240,0.00000669,-0.00006276,0.00009431,0.00074345,0.000155
 95,0.00095264,0.00012480,0.00093873,-0.09386825,0.20532619,-0.00077439
 ,-0.00062283,0.00491608,-0.00025522,-0.00013320,-0.00015367,0.00083307
 ,-0.00083130,0.00207818,-0.00149587,-0.00900968,0.00046869,0.00016185,
 0.00023613,0.00031866,-0.00002540,0.00004252,0.00009409,0.00101115,0.0
 0071573,0.00016941,-0.01256003,0.01476420,0.00722045,0.05387103,-0.075
 23523,-0.09510256,0.01799622,-0.02017614,-0.01782218,-0.00071100,-0.00
 173954,0.00043522,0.00002696,0.00012947,-0.00015373,0.00003324,-0.0001
 1292,-0.00008088,0.00005338,-0.00015887,0.00040604,-0.00031676,0.00041
 459,0.00002203,0.00005101,-0.00006188,-0.00003388,-0.00003513,-0.00010
 332,0.00013751,-0.00262015,0.00137109,-0.00227624,-0.05682164,0.088020
 33,0.10293134,-0.02740042,0.03300062,-0.00389884,0.00005432,-0.0000418
 6,0.00012525,0.00003685,-0.00036842,0.00016330,0.00069180,0.00039308,-
 0.00139787,0.00285394,-0.00056872,0.00220899,-0.00072877,-0.00058986,0
 .00046955,0.00010655,-0.00008974,-0.00103136,-0.00066160,0.00041900,-0
 .00048032,-0.00343299,0.01004441,0.00982446,-0.07185542,0.06923430,0.0
 6060823,-0.00215699,-0.01958694,-0.01038201,0.00240720,-0.00035020,-0.
 00012528,-0.00001028,-0.00000060,-0.00007566,0.00003642,-0.00002537,0.
 00007237,0.00017629,-0.00003911,-0.00024076,-0.00046846,0.00023284,-0.
 00054295,-0.00012199,0.00005131,0.00007270,0.00040372,-0.00018994,-0.0
 0009570,-0.00038176,-0.00069190,0.00170362,0.10230735,0.01744294,-0.01
 328922,0.00551878,-0.00014329,0.00004324,0.00001719,-0.00057082,0.0002
 0994,-0.00001144,0.00108690,0.00222280,-0.00120605,0.00038289,0.002141
 31,0.00083314,-0.00127072,-0.00108899,0.00136779,0.00018485,0.00005007
 ,-0.00031811,0.00100184,-0.00002283,-0.00132290,-0.00688543,0.00728158
 ,0.00885540,0.07730271,-0.16863388,-0.09793089,0.00221056,-0.01831508,
 -0.00849967,0.00275294,-0.00069234,-0.00118152,0.00002075,-0.00000484,
 -0.00004503,0.00010238,-0.00003575,-0.00020372,0.00060082,0.00002437,0
 .00020496,-0.00015119,0.00035032,-0.00156689,-0.00003845,0.00001445,0.
 00014609,-0.00018743,0.00025220,0.00022920,-0.00091120,-0.00041376,0.0
 0166419,-0.08961328,0.19045474,-0.01439107,0.01652817,0.01095588,-0.00
 019870,-0.00007769,0.00016928,-0.00022858,0.00032096,0.00026435,-0.001
 64555,-0.00001432,0.00319534,0.00087736,0.00104525,0.00190722,0.000084
 57,0.00122648,-0.00112620,0.00023238,0.00001001,-0.00110369,0.00096874
 ,-0.00118160,0.00099411,0.01215941,-0.02437217,-0.01781819,0.05374970,
 -0.08228611,-0.11230632,0.00327846,-0.00889128,-0.00660158,0.00032619,
 0.00223496,0.00082207,-0.00001903,0.00000631,-0.00010613,-0.00010510,0
 .00009213,0.00000634,-0.00044636,-0.00011583,0.00012835,0.00067024,-0.
 00017562,0.00106058,-0.00001246,0.00022118,0.00025904,-0.00056081,0.00
 058722,-0.00042650,0.00170793,0.00232928,-0.00435809,-0.05550738,0.092
 95210,0.12343044,0.00468207,-0.00343979,0.00246629,0.00018715,-0.00032
 418,-0.00083214,0.00047260,0.00021203,-0.00003609,0.00013138,0.0003367
 7,0.00015219,-0.01884642,0.02842711,-0.00050351,0.00137163,-0.00073108
 ,-0.00140259,-0.00132909,-0.00125367,0.00500787,-0.00031716,-0.0003762
 0,-0.00019853,0.00108191,0.00014194,-0.00044624,-0.00239495,-0.0168146
 4,-0.01467748,-0.08365535,0.07576879,0.05311827,-0.00564607,0.01177354
 ,0.00916152,-0.00001319,0.00011468,0.00023216,-0.00005217,-0.00006915,
 0.00008907,0.00001501,0.00006563,0.00008814,-0.00038153,-0.00042917,0.
 00016986,0.00076850,-0.00040453,-0.00124269,-0.00008580,-0.00007814,-0
 .00000939,-0.00007492,0.00002915,0.00001657,-0.00206670,-0.00228346,-0
 .00072602,0.10661715,0.00419156,-0.00100447,0.00305966,-0.00061866,0.0
 0071949,0.00037844,0.00013870,0.00000966,0.00027950,0.00008813,0.00078
 976,0.00021638,0.01340035,-0.01093137,0.00130293,-0.00035259,0.0014710
 4,-0.00114722,0.00106117,-0.00007970,-0.00260524,-0.00048007,-0.000271
 33,0.00028241,0.00179732,-0.00040532,-0.00091225,-0.00375955,-0.017241
 70,-0.01451467,0.08176931,-0.18965959,-0.09409368,-0.00458776,0.007328
 58,0.00650402,0.00014319,-0.00004861,-0.00011908,-0.00001997,-0.000054
 05,0.00005719,0.00001640,-0.00000551,0.00010242,-0.00016067,-0.0002461
 0,0.00035662,-0.00029795,0.00005121,0.00127679,-0.00001104,0.00021053,
 -0.00010425,-0.00067871,0.00033818,0.00061422,-0.00176387,-0.00166141,
 -0.00040244,-0.09005364,0.21030421,0.00028638,0.00047736,0.00072124,0.
 00018584,-0.00023943,-0.00058976,0.00015265,0.00006295,0.00000638,-0.0
 0016183,0.00012459,-0.00012233,-0.01397996,0.02066936,0.00715323,-0.00
 165163,0.00053484,0.00312343,-0.00289301,0.00266601,0.00438796,0.00012
 308,-0.00008376,-0.00042028,0.00021863,0.00079048,0.00031855,0.0037044
 1,-0.00582262,-0.00275396,0.05292275,-0.09545202,-0.11552857,0.0117979
 0,-0.02196933,-0.01361684,0.00000084,0.00001622,0.00003151,-0.00001588
 ,-0.00001505,0.00000687,0.00000850,0.00000248,0.00005055,0.00014919,-0
 .00022911,-0.00067134,0.00019690,-0.00113400,0.00042004,-0.00005503,-0
 .00005644,-0.00010023,-0.00002811,0.00009498,0.00053752,-0.00114613,-0
 .00061813,0.00019093,-0.05188695,0.09758625,0.11979365,0.00020061,-0.0
 0011529,0.00045472,0.00002384,0.00003518,0.00001313,0.00012730,0.00009
 020,0.00005136,-0.00013992,-0.00022090,0.00034626,0.00143508,0.0013096
 2,-0.00129450,-0.02503088,-0.00623662,-0.01149892,0.00019178,0.0001731
 5,0.00057015,-0.00007195,-0.00001054,-0.00034174,-0.00031806,-0.000262
 28,-0.00054471,0.00001362,0.00071281,0.00154536,-0.01368966,-0.0116240
 9,-0.00110132,-0.20419617,-0.11549552,-0.04402035,0.00001413,-0.000030
 62,0.00004597,-0.00001041,-0.00002262,0.00000939,-0.00005331,-0.000044
 62,-0.00003286,-0.00077901,0.00319044,-0.00222662,-0.00002015,-0.00001
 215,-0.00000740,0.00000543,0.00000779,0.00002744,0.00000619,0.00002176
 ,0.00000374,0.00012322,-0.00020394,0.00005825,0.00032931,0.00049169,-0
 .00011229,0.23352037,0.00048172,0.00020925,0.00021368,0.00014454,0.000
 00493,0.00001152,0.00015694,0.00003985,0.00007913,-0.00012418,-0.00023
 079,0.00031687,0.00054843,0.00063535,-0.00036825,0.02350150,0.01334813
 ,0.00830723,0.00001383,-0.00007844,0.00033411,-0.00016071,0.00002256,-
 0.00022051,-0.00044773,0.00003999,-0.00063709,-0.00076980,-0.00059237,
 0.00243579,-0.00775167,-0.00577667,-0.00340852,-0.12476241,-0.13843487
 ,-0.03833260,-0.00003466,-0.00001045,0.00010359,-0.00002467,-0.0000268
 8,0.00001738,-0.00006465,-0.00004227,-0.00004641,0.00396678,-0.0016313
 5,0.00295356,0.00003717,-0.00001125,-0.00005921,0.00000666,-0.00000950
 ,-0.00000115,-0.00003295,-0.00000890,0.00012379,0.00014381,0.00067771,
 0.00008786,0.00021953,0.00054251,0.00029517,0.12378362,0.14404899,-0.0
 0141814,0.00049186,-0.00110891,-0.00004266,-0.00012535,0.00008902,-0.0
 0013629,-0.00004445,-0.00004800,0.00022421,0.00031334,-0.00050443,0.00
 003519,-0.00105368,0.00197476,-0.02363607,-0.00620615,-0.00778239,0.00
 023038,0.00006084,-0.00018210,0.00013350,-0.00000199,0.00011649,0.0006
 1929,0.00052854,0.00070279,0.00366887,0.00076692,-0.00189669,0.0212562
 3,0.01670884,0.00348246,-0.04081270,-0.03554074,-0.06039207,-0.0000236
 1,0.00004232,-0.00007043,0.00002553,0.00002853,-0.00001221,0.00006519,
 0.00011410,-0.00000504,-0.00098115,0.00323861,-0.00167872,0.00001465,-
 0.00001545,0.00000549,-0.00002323,0.00000653,0.00000070,-0.00000646,-0
 .00005421,0.00001987,-0.00038241,0.00017583,-0.00016207,-0.00045811,-0
 .00060954,0.00103849,0.05544811,0.03292579,0.06914213,-0.00002613,-0.0
 0024801,-0.00038243,0.00003357,-0.00012754,0.00014865,-0.00001874,-0.0
 0001156,-0.00005836,0.00000180,-0.00008709,-0.00005661,0.00049600,-0.0
 0019331,0.00007570,-0.01198743,0.02555695,0.00355122,0.00022533,-0.000
 11632,0.00006144,0.00002336,0.00004065,0.00003374,0.00015872,-0.000107
 09,0.00001491,0.00078237,0.00240684,0.00044527,-0.00567057,0.01015634,
 0.01315171,-0.06902864,0.04572775,0.03615290,-0.00001975,-0.00002187,0
 .00000012,0.00000858,0.00001239,0.00000019,-0.00000349,0.00001388,-0.0
 0000132,0.00089543,0.00118731,0.00083141,0.00000370,0.00000701,-0.0001
 5743,0.00000927,-0.00003142,0.00001121,0.00007981,-0.00006431,-0.00014
 624,0.00008774,-0.00083037,-0.00027218,-0.00079337,-0.00031334,0.00218
 374,0.00831863,-0.01883110,-0.01380029,0.07642382,0.00015282,0.0003247
 0,-0.00021460,-0.00002368,0.00001328,-0.00010332,0.00002048,0.00002732
 ,-0.00000812,0.00002607,-0.00000938,-0.00011754,-0.00069856,0.00098976
 ,-0.00180764,0.01769925,-0.02014130,0.00017198,-0.00016540,0.00024568,
 0.00013237,-0.00002759,-0.00000829,-0.00006560,-0.00015809,0.00028613,
 0.00022489,-0.00040256,0.00074047,0.00106828,-0.00443381,0.00625873,0.
 00691499,0.04939372,-0.19481993,-0.10977383,0.00001766,-0.00002608,-0.
 00000320,0.00000436,-0.00001105,-0.00000077,0.00001658,0.00000379,-0.0
 0000833,-0.00132971,-0.00018420,0.00069271,0.00004881,-0.00013222,0.00
 006001,-0.00000240,0.00000441,0.00000070,-0.00004400,-0.00015932,0.000
 08864,0.00040045,0.00043535,-0.00012483,-0.00083153,-0.00015603,0.0022
 9920,0.00446293,-0.01271552,-0.01175048,-0.06412580,0.21903370,-0.0004
 0575,0.00042511,0.00005473,-0.00021158,0.00027278,-0.00011857,-0.00000
 441,0.00006745,0.00002577,0.00003906,0.00019009,0.00003315,-0.00008259
 ,0.00046691,0.00167944,-0.01081771,0.02222209,0.01184856,0.00003373,-0
 .00001530,-0.00012605,0.00000819,-0.00013580,-0.00003181,-0.00030301,0
 .00005260,0.00001771,-0.00021128,-0.00168132,0.00071737,0.00984262,-0.
 02362393,-0.01807606,0.03852792,-0.10927985,-0.12942702,0.00007514,-0.
 00002735,-0.00001714,-0.00000114,-0.00002755,-0.00000244,0.00000006,-0
 .00001397,-0.00000237,0.00104413,0.00017714,0.00109501,-0.00017930,0.0
 0017620,0.00026621,0.00000122,0.00008262,-0.00001693,-0.00015079,0.000
 04811,0.00022614,0.00005821,0.00093968,0.00062485,0.00191780,0.0024915
 2,-0.00397704,0.00260683,-0.00513171,-0.00272916,-0.04178734,0.1123244
 9,0.13793567\\0.00002312,-0.00002324,0.00001593,0.00000362,-0.00000473
 ,0.00001612,0.00001084,0.00001265,0.00001190,0.00003205,0.00002785,0.0
 0001307,-0.00002377,0.00002193,0.00000191,0.00001813,-0.00002791,0.000
 01508,0.00000570,0.00001244,-0.00002819,0.00000465,0.00000642,-0.00000
 711,-0.00002949,-0.00004653,0.00000718,-0.00005080,0.00000198,-0.00002
 913,0.00002783,-0.00000424,0.00002631,-0.00005135,0.00003477,-0.000055
 70,0.00001045,0.00001869,-0.00001034,0.00000895,-0.00000255,0.00000854
 ,0.00000546,-0.00000555,0.00000848,-0.00000327,-0.00001033,-0.00000091
 ,-0.00000032,0.00000216,0.00000189,0.00000818,0.00000345,0.00000846,0.
 00000209,0.00000106,0.00000537,0.00000489,-0.00000440,0.00000193,-0.00
 000646,-0.00000206,-0.00000591,-0.00000262,-0.00000471,-0.00000216,0.0
 0000213,-0.00000716,-0.00000271\\\@


 OPTIMIST - A PESSIMIST WHO LACKS EXPERIENCE
 Job cpu time:  0 days  0 hours  0 minutes 12.6 seconds.
 File lengths (MBytes):  RWF=   1052 Int=      0 D2E=      0 Chk=     23 Scr=      8
 Normal termination of Gaussian 09 at Thu Sep  8 21:42:30 2011.
