'c1056-ib c1253-ib'
 Entering Gaussian System, Link 0=g09
 Initial command:
 /usr/common/usg/g09/b11/g09/l1.exe /global/scratch/sd/hmayes/g09/1265052.cvrsvc09-ib/Gau-6832.inp -scrdir=/global/scratch/sd/hmayes/g09/1265052.cvrsvc09-ib/
 Entering Link 1 = /usr/common/usg/g09/b11/g09/l1.exe PID=      6833.
  
 Copyright (c) 1988,1990,1992,1993,1995,1998,2003,2009,2010,
            Gaussian, Inc.  All Rights Reserved.
  
 This is part of the Gaussian(R) 09 program.  It is based on
 the Gaussian(R) 03 system (copyright 2003, Gaussian, Inc.),
 the Gaussian(R) 98 system (copyright 1998, Gaussian, Inc.),
 the Gaussian(R) 94 system (copyright 1995, Gaussian, Inc.),
 the Gaussian 92(TM) system (copyright 1992, Gaussian, Inc.),
 the Gaussian 90(TM) system (copyright 1990, Gaussian, Inc.),
 the Gaussian 88(TM) system (copyright 1988, Gaussian, Inc.),
 the Gaussian 86(TM) system (copyright 1986, Carnegie Mellon
 University), and the Gaussian 82(TM) system (copyright 1983,
 Carnegie Mellon University). Gaussian is a federally registered
 trademark of Gaussian, Inc.
  
 This software contains proprietary and confidential information,
 including trade secrets, belonging to Gaussian, Inc.
  
 This software is provided under written license and may be
 used, copied, transmitted, or stored only in accord with that
 written license.
  
 The following legend is applicable only to US Government
 contracts under FAR:
  
                    RESTRICTED RIGHTS LEGEND
  
 Use, reproduction and disclosure by the US Government is
 subject to restrictions as set forth in subparagraphs (a)
 and (c) of the Commercial Computer Software - Restricted
 Rights clause in FAR 52.227-19.
  
 Gaussian, Inc.
 340 Quinnipiac St., Bldg. 40, Wallingford CT 06492
  
  
 ---------------------------------------------------------------
 Warning -- This program may not be used in any manner that
 competes with the business of Gaussian, Inc. or will provide
 assistance to any competitor of Gaussian, Inc.  The licensee
 of this program is prohibited from giving any competitor of
 Gaussian, Inc. access to this program.  By using this program,
 the user acknowledges that Gaussian, Inc. is engaged in the
 business of creating and licensing software in the field of
 computational chemistry and represents and warrants to the
 licensee that it is not a competitor of Gaussian, Inc. and that
 it will not use this program in any manner prohibited above.
 ---------------------------------------------------------------
  

 Cite this work as:
 Gaussian 09, Revision B.01,
 M. J. Frisch, G. W. Trucks, H. B. Schlegel, G. E. Scuseria, 
 M. A. Robb, J. R. Cheeseman, G. Scalmani, V. Barone, B. Mennucci, 
 G. A. Petersson, H. Nakatsuji, M. Caricato, X. Li, H. P. Hratchian, 
 A. F. Izmaylov, J. Bloino, G. Zheng, J. L. Sonnenberg, M. Hada, 
 M. Ehara, K. Toyota, R. Fukuda, J. Hasegawa, M. Ishida, T. Nakajima, 
 Y. Honda, O. Kitao, H. Nakai, T. Vreven, J. A. Montgomery, Jr., 
 J. E. Peralta, F. Ogliaro, M. Bearpark, J. J. Heyd, E. Brothers, 
 K. N. Kudin, V. N. Staroverov, T. Keith, R. Kobayashi, J. Normand, 
 K. Raghavachari, A. Rendell, J. C. Burant, S. S. Iyengar, J. Tomasi, 
 M. Cossi, N. Rega, J. M. Millam, M. Klene, J. E. Knox, J. B. Cross, 
 V. Bakken, C. Adamo, J. Jaramillo, R. Gomperts, R. E. Stratmann, 
 O. Yazyev, A. J. Austin, R. Cammi, C. Pomelli, J. W. Ochterski, 
 R. L. Martin, K. Morokuma, V. G. Zakrzewski, G. A. Voth, 
 P. Salvador, J. J. Dannenberg, S. Dapprich, A. D. Daniels, 
 O. Farkas, J. B. Foresman, J. V. Ortiz, J. Cioslowski, 
 and D. J. Fox, Gaussian, Inc., Wallingford CT, 2010.
 
 ******************************************
 Gaussian 09:  EM64L-G09RevB.01 12-Aug-2010
                23-Sep-2011 
 ******************************************
 %chk=/global/u1/h/hmayes/gaussian/glucose/m-glucose_gasm062x.chk
 %mem=16GB
 %nprocshared=8
 Will use up to    8 processors via shared memory.
 %nproclinda=2
 Will use up to    2 processors via Linda.
 ----------------------------------------------------------------------
 # opt m062x/6-31+g(2df,p) nosymm scf=(xqc,conver=6,maxcycle=1000) geom
 =allcheck guess=read
 ----------------------------------------------------------------------
 1/14=-1,18=20,19=15,26=3,29=7,38=1/1,3;
 2/9=110,12=2,15=1,40=1/2;
 3/5=1,6=6,7=114,11=2,14=-4,16=1,25=1,30=1,71=1,74=-55,116=-2/1,2,3;
 4/5=1/1;
 5/5=2,6=6,7=1000,8=3,13=1,38=6/2,8;
 6/7=2,8=2,9=2,10=2,28=1/1;
 7/30=1/1,2,3,16;
 1/14=-1,18=20,19=15/3(2);
 2/9=110,15=1/2;
 99//99;
 2/9=110,15=1/2;
 3/5=1,6=6,7=114,11=2,14=-2,16=1,25=1,30=1,71=1,74=-55/1,2,3;
 4/5=5,16=3/1;
 5/5=2,6=6,7=1000,8=3,13=1,38=5/2,8;
 7/30=1/1,2,3,16;
 1/14=-1,18=20,19=15/3(-5);
 2/9=110,15=1/2;
 6/7=2,8=2,9=2,10=2,19=2,28=1/1;
 99/9=1/99;
 ---------------------------------------------
 m-glucosem062x from b-glucosem062x add methyl
 ---------------------------------------------
 Redundant internal coordinates taken from checkpoint file:
 /global/u1/h/hmayes/gaussian/glucose/m-glucose_gasm062x.chk
 Charge =  0 Multiplicity = 1
 C,0,0.0791274774,0.3663330897,0.2448830272
 C,0,-0.5169758449,1.7273096156,-0.0980132217
 C,0,0.0252794757,2.1863226555,-1.4392720244
 C,0,1.5449666854,2.1702768321,-1.4302038927
 C,0,2.0360957281,0.7881729509,-1.0095694011
 C,0,3.5436303611,0.7262395333,-0.8573735764
 O,0,-0.3652756726,0.0122094184,1.5008674574
 O,0,-1.9198873408,1.6661467574,-0.2096451069
 O,0,-0.3814598026,3.5009884948,-1.7532212341
 O,0,2.0635137133,2.4540739598,-2.7094927591
 O,0,1.4892614734,0.4544447549,0.2578167432
 O,0,3.9651749564,-0.5626682394,-0.4661760229
 H,0,-0.2302960633,-0.3872359382,-0.5044402284
 H,0,-0.2108141651,2.4369817104,0.6845159605
 H,0,-0.3248856519,1.4868683441,-2.2154295384
 H,0,1.8983883459,2.910060441,-0.6944812203
 H,0,1.7158997824,0.0468420021,-1.7598040347
 H,0,-2.2815309544,1.4109444845,0.6460765254
 H,0,-1.3446553694,3.5244158269,-1.768723905
 H,0,1.635202996,3.2578141147,-3.0260983184
 H,0,3.4867283746,-0.788953363,0.3392796609
 H,0,4.0161443342,0.9497306855,-1.8155432437
 H,0,3.8582738914,1.4834979918,-0.1249342798
 C,0,-0.0761794347,-1.3307088502,1.8561099128
 H,0,-0.5383466244,-1.5083431857,2.8268203614
 H,0,-0.4986018394,-2.0221377865,1.1171592749
 H,0,1.0034025372,-1.4913566403,1.9298620003
 Recover connectivity data from disk.

 GradGradGradGradGradGradGradGradGradGradGradGradGradGradGradGradGradGrad
 Berny optimization.
 Initialization pass.
                           ----------------------------
                           !    Initial Parameters    !
                           ! (Angstroms and Degrees)  !
 --------------------------                            --------------------------
 ! Name  Definition              Value          Derivative Info.                !
 --------------------------------------------------------------------------------
 ! R1    R(1,2)                  1.5249         estimate D2E/DX2                !
 ! R2    R(1,7)                  1.3785         estimate D2E/DX2                !
 ! R3    R(1,11)                 1.4129         estimate D2E/DX2                !
 ! R4    R(1,13)                 1.1068         estimate D2E/DX2                !
 ! R5    R(2,3)                  1.5178         estimate D2E/DX2                !
 ! R6    R(2,8)                  1.4087         estimate D2E/DX2                !
 ! R7    R(2,14)                 1.0999         estimate D2E/DX2                !
 ! R8    R(3,4)                  1.5198         estimate D2E/DX2                !
 ! R9    R(3,9)                  1.4115         estimate D2E/DX2                !
 ! R10   R(3,15)                 1.1019         estimate D2E/DX2                !
 ! R11   R(4,5)                  1.5259         estimate D2E/DX2                !
 ! R12   R(4,10)                 1.4093         estimate D2E/DX2                !
 ! R13   R(4,16)                 1.1016         estimate D2E/DX2                !
 ! R14   R(5,6)                  1.5165         estimate D2E/DX2                !
 ! R15   R(5,11)                 1.4201         estimate D2E/DX2                !
 ! R16   R(5,17)                 1.1022         estimate D2E/DX2                !
 ! R17   R(6,12)                 1.4114         estimate D2E/DX2                !
 ! R18   R(6,22)                 1.0915         estimate D2E/DX2                !
 ! R19   R(6,23)                 1.0995         estimate D2E/DX2                !
 ! R20   R(7,24)                 1.4189         estimate D2E/DX2                !
 ! R21   R(8,18)                 0.9634         estimate D2E/DX2                !
 ! R22   R(9,19)                 0.9636         estimate D2E/DX2                !
 ! R23   R(10,20)                0.9642         estimate D2E/DX2                !
 ! R24   R(12,21)                0.9638         estimate D2E/DX2                !
 ! R25   R(24,25)                1.0897         estimate D2E/DX2                !
 ! R26   R(24,26)                1.0966         estimate D2E/DX2                !
 ! R27   R(24,27)                1.094          estimate D2E/DX2                !
 ! A1    A(2,1,7)              107.9466         estimate D2E/DX2                !
 ! A2    A(2,1,11)             109.6667         estimate D2E/DX2                !
 ! A3    A(2,1,13)             110.2513         estimate D2E/DX2                !
 ! A4    A(7,1,11)             109.2329         estimate D2E/DX2                !
 ! A5    A(7,1,13)             110.5969         estimate D2E/DX2                !
 ! A6    A(11,1,13)            109.1264         estimate D2E/DX2                !
 ! A7    A(1,2,3)              109.2064         estimate D2E/DX2                !
 ! A8    A(1,2,8)              111.6166         estimate D2E/DX2                !
 ! A9    A(1,2,14)             107.8833         estimate D2E/DX2                !
 ! A10   A(3,2,8)              107.3918         estimate D2E/DX2                !
 ! A11   A(3,2,14)             109.5202         estimate D2E/DX2                !
 ! A12   A(8,2,14)             111.1996         estimate D2E/DX2                !
 ! A13   A(2,3,4)              110.4123         estimate D2E/DX2                !
 ! A14   A(2,3,9)              112.0413         estimate D2E/DX2                !
 ! A15   A(2,3,15)             108.478          estimate D2E/DX2                !
 ! A16   A(4,3,9)              107.4155         estimate D2E/DX2                !
 ! A17   A(4,3,15)             108.3759         estimate D2E/DX2                !
 ! A18   A(9,3,15)             110.0577         estimate D2E/DX2                !
 ! A19   A(3,4,5)              109.4538         estimate D2E/DX2                !
 ! A20   A(3,4,10)             111.124          estimate D2E/DX2                !
 ! A21   A(3,4,16)             108.5241         estimate D2E/DX2                !
 ! A22   A(5,4,10)             108.3133         estimate D2E/DX2                !
 ! A23   A(5,4,16)             108.7179         estimate D2E/DX2                !
 ! A24   A(10,4,16)            110.6704         estimate D2E/DX2                !
 ! A25   A(4,5,6)              112.6206         estimate D2E/DX2                !
 ! A26   A(4,5,11)             109.5689         estimate D2E/DX2                !
 ! A27   A(4,5,17)             109.1509         estimate D2E/DX2                !
 ! A28   A(6,5,11)             106.4772         estimate D2E/DX2                !
 ! A29   A(6,5,17)             109.2461         estimate D2E/DX2                !
 ! A30   A(11,5,17)            109.7267         estimate D2E/DX2                !
 ! A31   A(5,6,12)             111.2249         estimate D2E/DX2                !
 ! A32   A(5,6,22)             109.5056         estimate D2E/DX2                !
 ! A33   A(5,6,23)             108.8573         estimate D2E/DX2                !
 ! A34   A(12,6,22)            107.5185         estimate D2E/DX2                !
 ! A35   A(12,6,23)            111.0295         estimate D2E/DX2                !
 ! A36   A(22,6,23)            108.656          estimate D2E/DX2                !
 ! A37   A(1,7,24)             113.926          estimate D2E/DX2                !
 ! A38   A(2,8,18)             108.358          estimate D2E/DX2                !
 ! A39   A(3,9,19)             108.3161         estimate D2E/DX2                !
 ! A40   A(4,10,20)            107.6073         estimate D2E/DX2                !
 ! A41   A(1,11,5)             113.0036         estimate D2E/DX2                !
 ! A42   A(6,12,21)            107.3245         estimate D2E/DX2                !
 ! A43   A(7,24,25)            106.912          estimate D2E/DX2                !
 ! A44   A(7,24,26)            110.4606         estimate D2E/DX2                !
 ! A45   A(7,24,27)            110.9125         estimate D2E/DX2                !
 ! A46   A(25,24,26)           109.5186         estimate D2E/DX2                !
 ! A47   A(25,24,27)           109.5456         estimate D2E/DX2                !
 ! A48   A(26,24,27)           109.4499         estimate D2E/DX2                !
 ! D1    D(7,1,2,3)            176.3932         estimate D2E/DX2                !
 ! D2    D(7,1,2,8)            -65.0186         estimate D2E/DX2                !
 ! D3    D(7,1,2,14)            57.4329         estimate D2E/DX2                !
 ! D4    D(11,1,2,3)            57.4814         estimate D2E/DX2                !
 ! D5    D(11,1,2,8)           176.0696         estimate D2E/DX2                !
 ! D6    D(11,1,2,14)          -61.479          estimate D2E/DX2                !
 ! D7    D(13,1,2,3)           -62.6999         estimate D2E/DX2                !
 ! D8    D(13,1,2,8)            55.8883         estimate D2E/DX2                !
 ! D9    D(13,1,2,14)          178.3398         estimate D2E/DX2                !
 ! D10   D(2,1,7,24)           169.7581         estimate D2E/DX2                !
 ! D11   D(11,1,7,24)          -71.0543         estimate D2E/DX2                !
 ! D12   D(13,1,7,24)           49.067          estimate D2E/DX2                !
 ! D13   D(2,1,11,5)           -63.1548         estimate D2E/DX2                !
 ! D14   D(7,1,11,5)           178.7298         estimate D2E/DX2                !
 ! D15   D(13,1,11,5)           57.7092         estimate D2E/DX2                !
 ! D16   D(1,2,3,4)            -54.3048         estimate D2E/DX2                !
 ! D17   D(1,2,3,9)           -173.9877         estimate D2E/DX2                !
 ! D18   D(1,2,3,15)            64.3161         estimate D2E/DX2                !
 ! D19   D(8,2,3,4)           -175.4971         estimate D2E/DX2                !
 ! D20   D(8,2,3,9)             64.82           estimate D2E/DX2                !
 ! D21   D(8,2,3,15)           -56.8762         estimate D2E/DX2                !
 ! D22   D(14,2,3,4)            63.6327         estimate D2E/DX2                !
 ! D23   D(14,2,3,9)           -56.0502         estimate D2E/DX2                !
 ! D24   D(14,2,3,15)         -177.7463         estimate D2E/DX2                !
 ! D25   D(1,2,8,18)            62.6452         estimate D2E/DX2                !
 ! D26   D(3,2,8,18)          -177.6896         estimate D2E/DX2                !
 ! D27   D(14,2,8,18)          -57.8844         estimate D2E/DX2                !
 ! D28   D(2,3,4,5)             54.059          estimate D2E/DX2                !
 ! D29   D(2,3,4,10)           173.6434         estimate D2E/DX2                !
 ! D30   D(2,3,4,16)           -64.4491         estimate D2E/DX2                !
 ! D31   D(9,3,4,5)            176.497          estimate D2E/DX2                !
 ! D32   D(9,3,4,10)           -63.9185         estimate D2E/DX2                !
 ! D33   D(9,3,4,16)            57.9889         estimate D2E/DX2                !
 ! D34   D(15,3,4,5)           -64.6243         estimate D2E/DX2                !
 ! D35   D(15,3,4,10)           54.9602         estimate D2E/DX2                !
 ! D36   D(15,3,4,16)          176.8677         estimate D2E/DX2                !
 ! D37   D(2,3,9,19)           -58.9797         estimate D2E/DX2                !
 ! D38   D(4,3,9,19)           179.5976         estimate D2E/DX2                !
 ! D39   D(15,3,9,19)           61.8061         estimate D2E/DX2                !
 ! D40   D(3,4,5,6)           -174.9312         estimate D2E/DX2                !
 ! D41   D(3,4,5,11)           -56.6222         estimate D2E/DX2                !
 ! D42   D(3,4,5,17)            63.5538         estimate D2E/DX2                !
 ! D43   D(10,4,5,6)            63.7699         estimate D2E/DX2                !
 ! D44   D(10,4,5,11)         -177.9211         estimate D2E/DX2                !
 ! D45   D(10,4,5,17)          -57.7451         estimate D2E/DX2                !
 ! D46   D(16,4,5,6)           -56.5437         estimate D2E/DX2                !
 ! D47   D(16,4,5,11)           61.7653         estimate D2E/DX2                !
 ! D48   D(16,4,5,17)         -178.0586         estimate D2E/DX2                !
 ! D49   D(3,4,10,20)           50.6322         estimate D2E/DX2                !
 ! D50   D(5,4,10,20)          170.8945         estimate D2E/DX2                !
 ! D51   D(16,4,10,20)         -70.0173         estimate D2E/DX2                !
 ! D52   D(4,5,6,12)           179.9079         estimate D2E/DX2                !
 ! D53   D(4,5,6,22)           -61.3968         estimate D2E/DX2                !
 ! D54   D(4,5,6,23)            57.2621         estimate D2E/DX2                !
 ! D55   D(11,5,6,12)           59.7993         estimate D2E/DX2                !
 ! D56   D(11,5,6,22)          178.4947         estimate D2E/DX2                !
 ! D57   D(11,5,6,23)          -62.8464         estimate D2E/DX2                !
 ! D58   D(17,5,6,12)          -58.6313         estimate D2E/DX2                !
 ! D59   D(17,5,6,22)           60.064          estimate D2E/DX2                !
 ! D60   D(17,5,6,23)          178.723          estimate D2E/DX2                !
 ! D61   D(4,5,11,1)            62.6732         estimate D2E/DX2                !
 ! D62   D(6,5,11,1)          -175.2654         estimate D2E/DX2                !
 ! D63   D(17,5,11,1)          -57.151          estimate D2E/DX2                !
 ! D64   D(5,6,12,21)          -55.2015         estimate D2E/DX2                !
 ! D65   D(22,6,12,21)        -175.0831         estimate D2E/DX2                !
 ! D66   D(23,6,12,21)          66.1835         estimate D2E/DX2                !
 ! D67   D(1,7,24,25)         -175.8394         estimate D2E/DX2                !
 ! D68   D(1,7,24,26)          -56.7501         estimate D2E/DX2                !
 ! D69   D(1,7,24,27)           64.7857         estimate D2E/DX2                !
 --------------------------------------------------------------------------------
 Trust Radius=3.00D-01 FncErr=1.00D-07 GrdErr=1.00D-06
 Number of steps in this run=    154 maximum allowed number of steps=    162.
 GradGradGradGradGradGradGradGradGradGradGradGradGradGradGradGradGradGrad

                          Input orientation:                          
 ---------------------------------------------------------------------
 Center     Atomic      Atomic             Coordinates (Angstroms)
 Number     Number       Type             X           Y           Z
 ---------------------------------------------------------------------
      1          6           0        0.079127    0.366333    0.244883
      2          6           0       -0.516976    1.727310   -0.098013
      3          6           0        0.025279    2.186323   -1.439272
      4          6           0        1.544967    2.170277   -1.430204
      5          6           0        2.036096    0.788173   -1.009569
      6          6           0        3.543630    0.726240   -0.857374
      7          8           0       -0.365276    0.012209    1.500867
      8          8           0       -1.919887    1.666147   -0.209645
      9          8           0       -0.381460    3.500988   -1.753221
     10          8           0        2.063514    2.454074   -2.709493
     11          8           0        1.489261    0.454445    0.257817
     12          8           0        3.965175   -0.562668   -0.466176
     13          1           0       -0.230296   -0.387236   -0.504440
     14          1           0       -0.210814    2.436982    0.684516
     15          1           0       -0.324886    1.486868   -2.215430
     16          1           0        1.898388    2.910060   -0.694481
     17          1           0        1.715900    0.046842   -1.759804
     18          1           0       -2.281531    1.410944    0.646077
     19          1           0       -1.344655    3.524416   -1.768724
     20          1           0        1.635203    3.257814   -3.026098
     21          1           0        3.486728   -0.788953    0.339280
     22          1           0        4.016144    0.949731   -1.815543
     23          1           0        3.858274    1.483498   -0.124934
     24          6           0       -0.076179   -1.330709    1.856110
     25          1           0       -0.538347   -1.508343    2.826820
     26          1           0       -0.498602   -2.022138    1.117159
     27          1           0        1.003403   -1.491357    1.929862
 ---------------------------------------------------------------------
                    Distance matrix (angstroms):
                    1          2          3          4          5
     1  C    0.000000
     2  C    1.524852   0.000000
     3  C    2.480250   1.517797   0.000000
     4  C    2.865103   2.494506   1.519799   0.000000
     5  C    2.362483   2.868987   2.486534   1.525894   0.000000
     6  C    3.653393   4.250564   3.853471   2.531410   1.516463
     7  O    1.378548   2.349681   3.677461   4.110652   3.559634
     8  O    2.427380   1.408674   2.359288   3.707981   4.130438
     9  O    3.745748   2.429818   1.411505   2.363525   3.709038
    10  O    4.126110   3.742584   2.416516   1.409259   2.380277
    11  O    1.412943   2.402455   2.832447   2.407612   1.420095
    12  O    4.058326   5.046704   4.901698   3.775678   2.416898
    13  H    1.106840   2.172250   2.749988   3.247994   2.602551
    14  H    2.136569   1.099873   2.151522   2.761510   3.261457
    15  H    2.733489   2.139664   1.101940   2.140087   2.741625
    16  H    3.265374   2.754752   2.141739   1.101578   2.149570
    17  H    2.607656   3.251346   2.745599   2.155651   1.102247
    18  H    2.612447   1.940982   3.204881   4.419232   4.665931
    19  H    4.006901   2.589579   1.943130   3.209081   4.415067
    20  H    4.634798   3.943095   2.501593   1.933328   3.213445
    21  H    3.599353   4.748942   4.898688   3.957089   2.532006
    22  H    4.481720   4.909554   4.194966   2.782973   2.143895
    23  H    3.958127   4.382120   4.112577   2.743499   2.141586
    24  C    2.345234   3.655732   4.820721   5.068025   4.142884
    25  H    3.249936   4.361715   5.671664   5.999558   5.159421
    26  H    2.607572   3.941489   4.951861   5.314280   4.341142
    27  H    2.672910   4.096784   5.082629   4.999089   3.860436
                    6          7          8          9         10
     6  C    0.000000
     7  O    4.620680   0.000000
     8  O    5.581488   2.842214   0.000000
     9  O    4.889592   4.770842   2.848865   0.000000
    10  O    2.933684   5.439564   4.768391   2.826372   0.000000
    11  O    2.353286   2.275973   3.648155   4.101866   3.623977
    12  O    1.411389   4.790882   6.298205   6.087941   4.213018
    13  H    3.950558   2.049155   2.675445   4.086636   4.265778
    14  H    4.404534   2.563164   2.077172   2.665294   4.085603
    15  H    4.169927   3.998389   2.568919   2.067249   2.623745
    16  H    2.739056   4.282671   4.044950   2.582215   2.072550
    17  H    2.148618   3.868394   4.271310   4.041050   2.611036
    18  H    6.054890   2.521738   0.963418   3.706101   5.588146
    19  H    5.705759   4.897449   2.492947   0.963605   3.694089
    20  H    3.841137   5.918554   4.806712   2.397140   0.964203
    21  H    1.931586   4.102327   5.963248   6.143699   4.673091
    22  H    1.091470   5.574439   6.191012   5.084459   2.622015
    23  H    1.099504   4.758812   5.781668   4.969600   3.292890
    24  C    4.969613   1.418874   4.080165   6.038689   6.304569
    25  H    5.935418   2.024891   4.605015   6.789315   7.288428
    26  H    5.271812   2.074506   4.169401   6.225571   6.422163
    27  H    4.374834   2.077986   4.805512   6.356607   6.181737
                   11         12         13         14         15
    11  O    0.000000
    12  O    2.772874   0.000000
    13  H    2.060665   4.199312   0.000000
    14  H    2.646277   5.268859   3.064344   0.000000
    15  H    3.236352   5.066074   2.539429   3.053754   0.000000
    16  H    2.665390   4.047663   3.929323   2.564015   3.046589
    17  H    2.070821   2.665373   2.356277   3.924244   2.538912
    18  H    3.909541   6.644817   2.960525   2.311298   3.467339
    19  H    4.643563   6.826067   4.259252   2.913159   2.321869
    20  H    4.320217   5.155391   4.808871   4.224950   2.763219
    21  H    2.354262   0.963782   3.832690   4.919112   5.121943
    22  H    3.305944   2.027496   4.640983   5.131217   4.392376
    23  H    2.611067   2.077178   4.512214   4.256973   4.676431
    24  C    2.862153   4.723922   2.546780   3.947943   4.957623
    25  H    3.816217   5.658607   3.528324   4.501370   5.868658
    26  H    3.289914   4.956037   2.318292   4.489293   4.842463
    27  H    2.611118   3.921168   2.943964   4.296167   5.274241
                   16         17         18         19         20
    16  H    0.000000
    17  H    3.060430   0.000000
    18  H    4.638552   4.860914   0.000000
    19  H    3.471133   4.632558   3.343016   0.000000
    20  H    2.372053   3.452587   5.677728   3.245246   0.000000
    21  H    4.156223   2.870634   6.181140   6.811101   5.579448
    22  H    3.095895   2.471728   6.777389   5.947215   3.530096
    23  H    2.490104   3.053939   6.188451   5.825621   4.062880
    24  C    5.328091   4.264273   3.720809   6.190371   6.915152
    25  H    6.153010   5.342036   4.039378   6.862785   7.854758
    26  H    5.775308   4.178709   3.897026   6.309389   7.042556
    27  H    5.201985   4.060461   4.567521   6.659646   6.893137
                   21         22         23         24         25
    21  H    0.000000
    22  H    2.818965   0.000000
    23  H    2.348952   1.779885   0.000000
    24  C    3.910062   5.952189   5.227257   0.000000
    25  H    4.786085   6.952486   6.082289   1.089693   0.000000
    26  H    4.243666   6.149445   5.728407   1.096614   1.785639
    27  H    3.031539   5.391065   4.606760   1.093958   1.783764
                   26         27
    26  H    0.000000
    27  H    1.788360   0.000000
 Symmetry turned off by external request.
 Stoichiometry    C7H14O6
 Framework group  C1[X(C7H14O6)]
 Deg. of freedom    75
 Full point group                 C1      NOp   1
 Rotational constants (GHZ):      0.8182466      0.7850231      0.4171201
 Standard basis: 6-31+G(2df,p) (6D, 7F)
 Integral buffers will be    131072 words long.
 Raffenetti 2 integral format.
 Two-electron integral symmetry is turned off.
   486 basis functions,   722 primitive gaussians,   525 cartesian basis functions
    52 alpha electrons       52 beta electrons
       nuclear repulsion energy       942.2672700607 Hartrees.
 NAtoms=   27 NActive=   27 NUniq=   27 SFac= 1.00D+00 NAtFMM=   50 NAOKFM=F Big=F
 One-electron integrals computed using PRISM.
 NBasis=   486 RedAO= T  NBF=   486
 NBsUse=   486 1.00D-06 NBFU=   486
 Initial guess read from the checkpoint file:  /global/u1/h/hmayes/gaussian/glucose/m-glucose_gasm062x.chk
 B after Tr=     0.000000    0.000000    0.000000
         Rot=    1.000000    0.000000    0.000000    0.000000 Ang=   0.00 deg.
 Requested convergence on RMS density matrix=1.00D-06 within 128 cycles.
 Requested convergence on MAX density matrix=1.00D-04.
 Requested convergence on             energy=1.00D-04.
 No special actions if energy rises.
 SCF Done:  E(RM062X) =  -726.291510729     A.U. after    7 cycles
             Convg  =    0.3001D-06             -V/T =  2.0058
 QCSCF skips out because SCF is already converged.

 **********************************************************************

            Population analysis using the SCF density.

 **********************************************************************

 Alpha  occ. eigenvalues --  -19.66785 -19.66368 -19.65816 -19.65367 -19.64641
 Alpha  occ. eigenvalues --  -19.63391 -10.66099 -10.61077 -10.61017 -10.60878
 Alpha  occ. eigenvalues --  -10.60813 -10.60488 -10.59252  -1.22871  -1.18270
 Alpha  occ. eigenvalues --   -1.17294  -1.16030  -1.14930  -1.14125  -0.90035
 Alpha  occ. eigenvalues --   -0.88851  -0.81917  -0.77282  -0.72882  -0.71649
 Alpha  occ. eigenvalues --   -0.68855  -0.64500  -0.62379  -0.61186  -0.59883
 Alpha  occ. eigenvalues --   -0.58408  -0.57228  -0.55975  -0.53960  -0.53046
 Alpha  occ. eigenvalues --   -0.51838  -0.50871  -0.50236  -0.48971  -0.47207
 Alpha  occ. eigenvalues --   -0.46447  -0.44850  -0.43517  -0.42477  -0.41931
 Alpha  occ. eigenvalues --   -0.40138  -0.38191  -0.37033  -0.36916  -0.35812
 Alpha  occ. eigenvalues --   -0.34818  -0.34260
 Alpha virt. eigenvalues --    0.01233   0.01603   0.01937   0.02546   0.03765
 Alpha virt. eigenvalues --    0.04311   0.05197   0.05366   0.05922   0.06388
 Alpha virt. eigenvalues --    0.07739   0.08433   0.08936   0.09303   0.09741
 Alpha virt. eigenvalues --    0.10442   0.11687   0.12498   0.12660   0.13427
 Alpha virt. eigenvalues --    0.14391   0.15079   0.15480   0.15940   0.16785
 Alpha virt. eigenvalues --    0.17812   0.18311   0.19367   0.19990   0.20525
 Alpha virt. eigenvalues --    0.21153   0.21733   0.22004   0.22832   0.23148
 Alpha virt. eigenvalues --    0.23310   0.24338   0.24676   0.25074   0.25716
 Alpha virt. eigenvalues --    0.26477   0.27246   0.27258   0.27782   0.28324
 Alpha virt. eigenvalues --    0.28623   0.28848   0.29277   0.29777   0.30211
 Alpha virt. eigenvalues --    0.31100   0.31766   0.32080   0.32958   0.33484
 Alpha virt. eigenvalues --    0.34026   0.34159   0.34696   0.34725   0.35719
 Alpha virt. eigenvalues --    0.35879   0.36328   0.37582   0.37687   0.38746
 Alpha virt. eigenvalues --    0.38960   0.40354   0.41003   0.41839   0.42695
 Alpha virt. eigenvalues --    0.43344   0.43757   0.44172   0.45138   0.45221
 Alpha virt. eigenvalues --    0.46223   0.46758   0.48819   0.50162   0.59172
 Alpha virt. eigenvalues --    0.60421   0.62725   0.63417   0.65229   0.66560
 Alpha virt. eigenvalues --    0.67198   0.68448   0.70159   0.71375   0.72711
 Alpha virt. eigenvalues --    0.73838   0.74617   0.75253   0.77049   0.77793
 Alpha virt. eigenvalues --    0.78588   0.79701   0.80588   0.82024   0.83432
 Alpha virt. eigenvalues --    0.84754   0.85834   0.86800   0.89684   0.91417
 Alpha virt. eigenvalues --    0.91801   0.93806   0.94913   0.95122   0.95739
 Alpha virt. eigenvalues --    0.96544   0.97496   0.98867   0.99120   1.01480
 Alpha virt. eigenvalues --    1.02253   1.03169   1.03449   1.04121   1.04186
 Alpha virt. eigenvalues --    1.04891   1.06184   1.06424   1.08180   1.08747
 Alpha virt. eigenvalues --    1.10927   1.12422   1.13824   1.14831   1.15709
 Alpha virt. eigenvalues --    1.17157   1.17807   1.18890   1.20814   1.22372
 Alpha virt. eigenvalues --    1.22899   1.23698   1.25204   1.25585   1.26430
 Alpha virt. eigenvalues --    1.27281   1.28400   1.28951   1.30450   1.30748
 Alpha virt. eigenvalues --    1.31470   1.32995   1.35332   1.36443   1.37109
 Alpha virt. eigenvalues --    1.37889   1.37965   1.39175   1.40191   1.41734
 Alpha virt. eigenvalues --    1.42605   1.43660   1.45213   1.46670   1.47187
 Alpha virt. eigenvalues --    1.47931   1.52226   1.53164   1.55793   1.55997
 Alpha virt. eigenvalues --    1.57914   1.58180   1.59175   1.59997   1.61637
 Alpha virt. eigenvalues --    1.63237   1.64095   1.66227   1.66753   1.68827
 Alpha virt. eigenvalues --    1.70632   1.72540   1.74022   1.74091   1.76398
 Alpha virt. eigenvalues --    1.76853   1.78539   1.81390   1.82684   1.85112
 Alpha virt. eigenvalues --    1.87506   1.89588   1.90161   1.91428   1.93356
 Alpha virt. eigenvalues --    1.94550   1.95606   1.96897   1.97562   1.99543
 Alpha virt. eigenvalues --    2.00478   2.02160   2.04257   2.07062   2.08231
 Alpha virt. eigenvalues --    2.11199   2.14582   2.15624   2.18726   2.23041
 Alpha virt. eigenvalues --    2.25585   2.29601   2.31126   2.32149   2.35385
 Alpha virt. eigenvalues --    2.36827   2.40139   2.42137   2.44160   2.45587
 Alpha virt. eigenvalues --    2.48122   2.48711   2.52516   2.55149   2.59337
 Alpha virt. eigenvalues --    2.59649   2.59879   2.63437   2.63901   2.66709
 Alpha virt. eigenvalues --    2.67639   2.70173   2.72897   2.77184   2.77747
 Alpha virt. eigenvalues --    2.79469   2.82555   2.83378   2.84455   2.85276
 Alpha virt. eigenvalues --    2.85910   2.86767   2.88697   2.90390   2.91925
 Alpha virt. eigenvalues --    2.94523   2.96074   2.97716   2.99188   2.99343
 Alpha virt. eigenvalues --    2.99890   3.00241   3.02707   3.05598   3.06262
 Alpha virt. eigenvalues --    3.09892   3.11406   3.12409   3.14004   3.14422
 Alpha virt. eigenvalues --    3.16573   3.17231   3.21729   3.26638   3.27291
 Alpha virt. eigenvalues --    3.28860   3.30000   3.31725   3.33310   3.35961
 Alpha virt. eigenvalues --    3.38387   3.40254   3.41752   3.44499   3.45584
 Alpha virt. eigenvalues --    3.48416   3.49144   3.50144   3.51132   3.54847
 Alpha virt. eigenvalues --    3.56472   3.59423   3.61347   3.63175   3.66046
 Alpha virt. eigenvalues --    3.67155   3.68504   3.70171   3.71411   3.73038
 Alpha virt. eigenvalues --    3.74377   3.77112   3.80113   3.83270   3.85746
 Alpha virt. eigenvalues --    3.88949   3.92722   3.95492   3.98240   4.01685
 Alpha virt. eigenvalues --    4.06734   4.12808   4.17921   4.18411   4.20855
 Alpha virt. eigenvalues --    4.24799   4.27543   4.27614   4.29766   4.31738
 Alpha virt. eigenvalues --    4.34302   4.35595   4.37313   4.38912   4.39552
 Alpha virt. eigenvalues --    4.40767   4.41899   4.43967   4.44260   4.45627
 Alpha virt. eigenvalues --    4.46785   4.48542   4.49163   4.51802   4.52225
 Alpha virt. eigenvalues --    4.53464   4.54060   4.54470   4.55751   4.57236
 Alpha virt. eigenvalues --    4.58583   4.60198   4.60898   4.61706   4.62503
 Alpha virt. eigenvalues --    4.64334   4.64889   4.66138   4.67791   4.68573
 Alpha virt. eigenvalues --    4.70440   4.70850   4.71907   4.72828   4.73368
 Alpha virt. eigenvalues --    4.73586   4.75158   4.75896   4.77547   4.77863
 Alpha virt. eigenvalues --    4.80898   4.82659   4.83770   4.86674   4.87095
 Alpha virt. eigenvalues --    4.90514   4.91406   4.94034   4.94966   4.95806
 Alpha virt. eigenvalues --    4.98428   4.99049   5.01893   5.03280   5.07418
 Alpha virt. eigenvalues --    5.08651   5.11680   5.13435   5.21248   5.24633
 Alpha virt. eigenvalues --    5.25484   5.27356   5.29495   5.32178   5.37617
 Alpha virt. eigenvalues --    5.38337   5.41408   5.42533   5.42723   5.44729
 Alpha virt. eigenvalues --    5.46133   5.46515   5.48018   5.48634   5.49419
 Alpha virt. eigenvalues --    5.50119   5.52641   5.55003   5.56085   5.60090
 Alpha virt. eigenvalues --    5.60280   5.64542   5.66880   5.70732   5.76052
 Alpha virt. eigenvalues --    5.80325   5.84018   5.86616   5.88140   5.93422
 Alpha virt. eigenvalues --    5.94522   5.95359   5.98032   6.00617   6.02912
 Alpha virt. eigenvalues --    6.04250   6.04637   6.06205   6.08203   6.09369
 Alpha virt. eigenvalues --    6.12117   6.13985   6.16119   6.16657   6.26860
 Alpha virt. eigenvalues --    6.27421   6.33188   6.46946   6.89260   7.10513
 Alpha virt. eigenvalues --    7.14339   7.25860   7.27881   7.31691   7.44225
 Alpha virt. eigenvalues --    7.88051  11.90467  12.01693  12.14542  12.41938
 Alpha virt. eigenvalues --   12.80508  12.91834  13.30581  13.37436  13.51707
 Alpha virt. eigenvalues --   13.60976  13.63153  13.77704  14.02962
          Condensed to atoms (all electrons):
              1          2          3          4          5          6
     1  C    5.674989  -0.153951  -0.057173   0.172189  -0.285891  -0.082637
     2  C   -0.153951   5.853681   0.352803  -0.528091   0.078338   0.091891
     3  C   -0.057173   0.352803   5.442646  -0.027102   0.067638  -0.193772
     4  C    0.172189  -0.528091  -0.027102   6.158159  -0.222714  -0.062518
     5  C   -0.285891   0.078338   0.067638  -0.222714   6.526926  -0.372752
     6  C   -0.082637   0.091891  -0.193772  -0.062518  -0.372752   5.862068
     7  O    0.279556  -0.004041  -0.003642  -0.005873  -0.004608   0.004618
     8  O   -0.061344   0.274766  -0.070091  -0.013278   0.007695   0.000395
     9  O    0.029115  -0.083126   0.288847  -0.061869  -0.001643  -0.006356
    10  O    0.000971  -0.001321   0.001690   0.248293  -0.068662  -0.030614
    11  O    0.157664  -0.060989  -0.008226  -0.011612   0.176402  -0.030634
    12  O    0.003995  -0.004494   0.005810   0.008780   0.052259   0.132044
    13  H    0.311070   0.027046   0.000063  -0.026738   0.031914   0.019789
    14  H   -0.067158   0.412601  -0.054570   0.011320   0.012835   0.011237
    15  H    0.008846  -0.036360   0.404095  -0.088611   0.020667   0.004898
    16  H    0.006070  -0.002816   0.052697   0.306427  -0.047677  -0.003183
    17  H    0.022818  -0.017565  -0.025032   0.045302   0.206333   0.079652
    18  H   -0.053295   0.030601   0.008943  -0.003669   0.001436   0.000046
    19  H    0.004104  -0.042530  -0.018246   0.031244   0.000722   0.000724
    20  H    0.001421   0.002497  -0.029614  -0.016819   0.020432  -0.000622
    21  H   -0.002105   0.001684  -0.002830   0.014129  -0.075108   0.024703
    22  H    0.000864   0.001138  -0.007089   0.004629  -0.098771   0.478410
    23  H    0.001894  -0.003999   0.004577   0.023748  -0.052579   0.390474
    24  C   -0.086675  -0.065525   0.007247   0.004501   0.000703  -0.015030
    25  H    0.010004  -0.003438  -0.000637   0.000356   0.000932   0.000031
    26  H    0.007830   0.007569   0.000519  -0.001696  -0.001375   0.000402
    27  H   -0.010417   0.004256  -0.000054  -0.000666   0.000016  -0.000528
              7          8          9         10         11         12
     1  C    0.279556  -0.061344   0.029115   0.000971   0.157664   0.003995
     2  C   -0.004041   0.274766  -0.083126  -0.001321  -0.060989  -0.004494
     3  C   -0.003642  -0.070091   0.288847   0.001690  -0.008226   0.005810
     4  C   -0.005873  -0.013278  -0.061869   0.248293  -0.011612   0.008780
     5  C   -0.004608   0.007695  -0.001643  -0.068662   0.176402   0.052259
     6  C    0.004618   0.000395  -0.006356  -0.030614  -0.030634   0.132044
     7  O    7.923365  -0.009214   0.000139  -0.000117  -0.005436   0.000244
     8  O   -0.009214   8.134116  -0.010631   0.000200   0.003581  -0.000020
     9  O    0.000139  -0.010631   8.131992  -0.018548  -0.002958   0.000030
    10  O   -0.000117   0.000200  -0.018548   8.121450   0.005246  -0.000712
    11  O   -0.005436   0.003581  -0.002958   0.005246   8.084913  -0.009302
    12  O    0.000244  -0.000020   0.000030  -0.000712  -0.009302   8.052978
    13  H   -0.031213   0.001248   0.000275   0.000073  -0.042640   0.000044
    14  H   -0.003659  -0.028546  -0.000202   0.000389   0.005406  -0.000031
    15  H    0.000533  -0.001844  -0.031460  -0.000514   0.002862   0.000030
    16  H   -0.000145  -0.000025  -0.002292  -0.035114   0.005810   0.000305
    17  H    0.000952  -0.000102   0.000213  -0.001132  -0.025954  -0.001194
    18  H    0.008745   0.278214   0.000331   0.000003  -0.000513   0.000000
    19  H   -0.000056   0.010522   0.282259   0.000868   0.000059   0.000000
    20  H    0.000007  -0.000041   0.012194   0.275071  -0.000678  -0.000011
    21  H   -0.000086  -0.000008  -0.000001   0.000051   0.016365   0.280696
    22  H   -0.000010  -0.000005  -0.000009   0.001073   0.004206  -0.039394
    23  H    0.000180  -0.000001  -0.000002  -0.003447  -0.002070  -0.037253
    24  C    0.149631  -0.003372   0.000456  -0.000537   0.011818   0.001451
    25  H   -0.045539   0.000142  -0.000001   0.000000   0.000141  -0.000001
    26  H   -0.042521   0.000239   0.000005   0.000000  -0.002764   0.000031
    27  H   -0.035283  -0.000177  -0.000003   0.000000   0.002412  -0.000126
             13         14         15         16         17         18
     1  C    0.311070  -0.067158   0.008846   0.006070   0.022818  -0.053295
     2  C    0.027046   0.412601  -0.036360  -0.002816  -0.017565   0.030601
     3  C    0.000063  -0.054570   0.404095   0.052697  -0.025032   0.008943
     4  C   -0.026738   0.011320  -0.088611   0.306427   0.045302  -0.003669
     5  C    0.031914   0.012835   0.020667  -0.047677   0.206333   0.001436
     6  C    0.019789   0.011237   0.004898  -0.003183   0.079652   0.000046
     7  O   -0.031213  -0.003659   0.000533  -0.000145   0.000952   0.008745
     8  O    0.001248  -0.028546  -0.001844  -0.000025  -0.000102   0.278214
     9  O    0.000275  -0.000202  -0.031460  -0.002292   0.000213   0.000331
    10  O    0.000073   0.000389  -0.000514  -0.035114  -0.001132   0.000003
    11  O   -0.042640   0.005406   0.002862   0.005810  -0.025954  -0.000513
    12  O    0.000044  -0.000031   0.000030   0.000305  -0.001194   0.000000
    13  H    0.572906   0.003545   0.000543  -0.000097   0.002929  -0.000021
    14  H    0.003545   0.530570   0.003825   0.000180  -0.000100  -0.004730
    15  H    0.000543   0.003825   0.546607   0.003932   0.000609  -0.000121
    16  H   -0.000097   0.000180   0.003932   0.556762   0.003916   0.000008
    17  H    0.002929  -0.000100   0.000609   0.003916   0.551249   0.000002
    18  H   -0.000021  -0.004730  -0.000121   0.000008   0.000002   0.361516
    19  H   -0.000002  -0.000139  -0.003347  -0.000110  -0.000001  -0.000269
    20  H   -0.000002  -0.000001  -0.000373  -0.002510  -0.000278   0.000000
    21  H    0.000047   0.000000  -0.000001   0.000012   0.000180   0.000000
    22  H    0.000006  -0.000001  -0.000009   0.000155  -0.002535   0.000000
    23  H   -0.000013  -0.000020  -0.000008   0.001837   0.004020   0.000000
    24  C   -0.010775  -0.003053   0.001544   0.000256   0.001056  -0.000893
    25  H    0.000035   0.000011   0.000000   0.000000   0.000000  -0.000004
    26  H    0.006354  -0.000005  -0.000002   0.000000  -0.000004   0.000018
    27  H   -0.001262   0.000003   0.000000   0.000000   0.000006   0.000002
             19         20         21         22         23         24
     1  C    0.004104   0.001421  -0.002105   0.000864   0.001894  -0.086675
     2  C   -0.042530   0.002497   0.001684   0.001138  -0.003999  -0.065525
     3  C   -0.018246  -0.029614  -0.002830  -0.007089   0.004577   0.007247
     4  C    0.031244  -0.016819   0.014129   0.004629   0.023748   0.004501
     5  C    0.000722   0.020432  -0.075108  -0.098771  -0.052579   0.000703
     6  C    0.000724  -0.000622   0.024703   0.478410   0.390474  -0.015030
     7  O   -0.000056   0.000007  -0.000086  -0.000010   0.000180   0.149631
     8  O    0.010522  -0.000041  -0.000008  -0.000005  -0.000001  -0.003372
     9  O    0.282259   0.012194  -0.000001  -0.000009  -0.000002   0.000456
    10  O    0.000868   0.275071   0.000051   0.001073  -0.003447  -0.000537
    11  O    0.000059  -0.000678   0.016365   0.004206  -0.002070   0.011818
    12  O    0.000000  -0.000011   0.280696  -0.039394  -0.037253   0.001451
    13  H   -0.000002  -0.000002   0.000047   0.000006  -0.000013  -0.010775
    14  H   -0.000139  -0.000001   0.000000  -0.000001  -0.000020  -0.003053
    15  H   -0.003347  -0.000373  -0.000001  -0.000009  -0.000008   0.001544
    16  H   -0.000110  -0.002510   0.000012   0.000155   0.001837   0.000256
    17  H   -0.000001  -0.000278   0.000180  -0.002535   0.004020   0.001056
    18  H   -0.000269   0.000000   0.000000   0.000000   0.000000  -0.000893
    19  H    0.357013  -0.000369   0.000000   0.000000   0.000000  -0.000098
    20  H   -0.000369   0.361695   0.000001   0.000098  -0.000057   0.000061
    21  H    0.000000   0.000001   0.378929   0.005089  -0.003400   0.002447
    22  H    0.000000   0.000098   0.005089   0.495128  -0.033092   0.000162
    23  H    0.000000  -0.000057  -0.003400  -0.033092   0.551268  -0.000065
    24  C   -0.000098   0.000061   0.002447   0.000162  -0.000065   5.153270
    25  H    0.000000   0.000000  -0.000001   0.000000   0.000000   0.414439
    26  H    0.000000   0.000000  -0.000002   0.000000   0.000000   0.395300
    27  H    0.000000   0.000000   0.000041  -0.000001   0.000001   0.412841
             25         26         27
     1  C    0.010004   0.007830  -0.010417
     2  C   -0.003438   0.007569   0.004256
     3  C   -0.000637   0.000519  -0.000054
     4  C    0.000356  -0.001696  -0.000666
     5  C    0.000932  -0.001375   0.000016
     6  C    0.000031   0.000402  -0.000528
     7  O   -0.045539  -0.042521  -0.035283
     8  O    0.000142   0.000239  -0.000177
     9  O   -0.000001   0.000005  -0.000003
    10  O    0.000000   0.000000   0.000000
    11  O    0.000141  -0.002764   0.002412
    12  O   -0.000001   0.000031  -0.000126
    13  H    0.000035   0.006354  -0.001262
    14  H    0.000011  -0.000005   0.000003
    15  H    0.000000  -0.000002   0.000000
    16  H    0.000000   0.000000   0.000000
    17  H    0.000000  -0.000004   0.000006
    18  H   -0.000004   0.000018   0.000002
    19  H    0.000000   0.000000   0.000000
    20  H    0.000000   0.000000   0.000000
    21  H   -0.000001  -0.000002   0.000041
    22  H    0.000000   0.000000  -0.000001
    23  H    0.000000   0.000000   0.000001
    24  C    0.414439   0.395300   0.412841
    25  H    0.494699  -0.024426  -0.025766
    26  H   -0.024426   0.524997  -0.036130
    27  H   -0.025766  -0.036130   0.513242
 Mulliken atomic charges:
              1
     1  C    0.167246
     2  C   -0.130627
     3  C   -0.139499
     4  C    0.042181
     5  C    0.026531
     6  C   -0.302736
     7  O   -0.176527
     8  O   -0.512421
     9  O   -0.526755
    10  O   -0.494660
    11  O   -0.273108
    12  O   -0.446161
    13  H    0.134875
    14  H    0.170292
    15  H    0.163659
    16  H    0.155604
    17  H    0.154659
    18  H    0.373648
    19  H    0.377652
    20  H    0.377899
    21  H    0.359170
    22  H    0.189957
    23  H    0.158007
    24  C   -0.371160
    25  H    0.179023
    26  H    0.165660
    27  H    0.177592
 Sum of Mulliken atomic charges =   0.00000
 Mulliken charges with hydrogens summed into heavy atoms:
              1
     1  C    0.302121
     2  C    0.039664
     3  C    0.024160
     4  C    0.197786
     5  C    0.181190
     6  C    0.045227
     7  O   -0.176527
     8  O   -0.138773
     9  O   -0.149103
    10  O   -0.116761
    11  O   -0.273108
    12  O   -0.086991
    24  C    0.151114
 Sum of Mulliken charges with hydrogens summed into heavy atoms =   0.00000
 Electronic spatial extent (au):  <R**2>=           3413.6101
 Charge=              0.0000 electrons
 Dipole moment (field-independent basis, Debye):
    X=             -2.7826    Y=             -0.4090    Z=              1.5413  Tot=              3.2071
 Quadrupole moment (field-independent basis, Debye-Ang):
   XX=            -88.7795   YY=            -76.6267   ZZ=            -78.2952
   XY=              1.6411   XZ=              3.6589   YZ=             -3.1251
 Traceless Quadrupole moment (field-independent basis, Debye-Ang):
   XX=             -7.5457   YY=              4.6071   ZZ=              2.9386
   XY=              1.6411   XZ=              3.6589   YZ=             -3.1251
 Octapole moment (field-independent basis, Debye-Ang**2):
  XXX=           -269.7658  YYY=           -251.2227  ZZZ=            114.9265  XYY=            -75.7227
  XXY=            -61.7835  XXZ=             57.8366  XZZ=            -81.8131  YZZ=            -84.0234
  YYZ=             36.9647  XYZ=             -1.5826
 Hexadecapole moment (field-independent basis, Debye-Ang**3):
 XXXX=          -2054.9975 YYYY=          -1503.4992 ZZZZ=           -946.6148 XXXY=            -52.4739
 XXXZ=            303.3673 YYYX=           -118.3550 YYYZ=            394.3820 ZZZX=            276.8906
 ZZZY=            393.0026 XXYY=           -527.9222 XXZZ=           -463.3176 YYZZ=           -361.1135
 XXYZ=            127.6711 YYXZ=             99.2708 ZZXY=            -55.8832
 N-N= 9.422672700607D+02 E-N=-3.586913889167D+03  KE= 7.220987400048D+02
 Calling FoFJK, ICntrl=      2127 FMM=F ISym2X=0 I1Cent= 0 IOpClX= 0 NMat=1 NMatS=1 NMatT=0.
 -------------------------------------------------------------------
 Center     Atomic                   Forces (Hartrees/Bohr)
 Number     Number              X              Y              Z
 -------------------------------------------------------------------
      1        6           0.002827797    0.001433452    0.000818272
      2        6          -0.000453759   -0.000283269    0.000092110
      3        6          -0.000326219    0.000981132    0.000432326
      4        6           0.000228477    0.000302484   -0.001853664
      5        6           0.000441144    0.000755071   -0.000271656
      6        6           0.000863674   -0.002804737    0.000333337
      7        8          -0.000800478   -0.002477290    0.000564555
      8        8          -0.000463536    0.000206055    0.000484030
      9        8          -0.000368539   -0.000656888   -0.000374953
     10        8          -0.000675082   -0.000027313    0.001207063
     11        8          -0.001869669   -0.000846078    0.000316895
     12        8          -0.001134255    0.001420702    0.000194152
     13        1          -0.000381116   -0.000239084   -0.000479271
     14        1           0.000350604   -0.000147413   -0.000077284
     15        1           0.000089884   -0.000326021   -0.000149544
     16        1          -0.000186860    0.000039248    0.000363320
     17        1           0.000311242   -0.000037932   -0.000230987
     18        1           0.000748742   -0.000085459   -0.000923383
     19        1           0.000828098   -0.000237820    0.000627500
     20        1           0.000002067   -0.000738428    0.000521940
     21        1           0.000522366    0.000735550   -0.001145826
     22        1          -0.000166851   -0.000026525   -0.000012759
     23        1          -0.000150881    0.000461613    0.000144700
     24        6          -0.000147747    0.002876799   -0.000465830
     25        1          -0.000060652    0.000064661    0.000123899
     26        1          -0.000143703   -0.000389006   -0.000251542
     27        1           0.000115252    0.000046496    0.000012601
 -------------------------------------------------------------------
 Cartesian Forces:  Max     0.002876799 RMS     0.000852682

 GradGradGradGradGradGradGradGradGradGradGradGradGradGradGradGradGradGrad
 Berny optimization.
 Internal  Forces:  Max     0.002644547 RMS     0.000484893
 Search for a local minimum.
 Step number   1 out of a maximum of  154
 All quantities printed in internal units (Hartrees-Bohrs-Radians)
 Mixed Optimization -- En-DIIS/RFO-DIIS
 Second derivative matrix not updated -- first step.
 ITU=  0
     Eigenvalues ---    0.00548   0.00751   0.00777   0.01442   0.01540
     Eigenvalues ---    0.01541   0.01541   0.01569   0.01577   0.01976
     Eigenvalues ---    0.03069   0.03381   0.04524   0.04913   0.04943
     Eigenvalues ---    0.05048   0.05129   0.05356   0.05704   0.05981
     Eigenvalues ---    0.06033   0.06374   0.06651   0.06897   0.07095
     Eigenvalues ---    0.08004   0.09262   0.10194   0.10601   0.11054
     Eigenvalues ---    0.11495   0.11505   0.13880   0.14019   0.16000
     Eigenvalues ---    0.16000   0.16000   0.16000   0.16000   0.16000
     Eigenvalues ---    0.16000   0.16346   0.17161   0.18467   0.19182
     Eigenvalues ---    0.20004   0.22073   0.25000   0.27815   0.29457
     Eigenvalues ---    0.29613   0.29860   0.30710   0.32937   0.33435
     Eigenvalues ---    0.33468   0.33508   0.33696   0.33737   0.34059
     Eigenvalues ---    0.34359   0.34643   0.34848   0.40733   0.41845
     Eigenvalues ---    0.42630   0.43766   0.43784   0.44120   0.44213
     Eigenvalues ---    0.49369   0.54579   0.54668   0.54705   0.54745
 RFO step:  Lambda=-1.62822180D-04 EMin= 5.48173699D-03
 Linear search not attempted -- first point.
 Iteration  1 RMS(Cart)=  0.00769325 RMS(Int)=  0.00005380
 Iteration  2 RMS(Cart)=  0.00007422 RMS(Int)=  0.00000257
 Iteration  3 RMS(Cart)=  0.00000000 RMS(Int)=  0.00000257
 Variable       Old X    -DE/DX   Delta X   Delta X   Delta X     New X
                                 (Linear)    (Quad)   (Total)
    R1        2.88155  -0.00066   0.00000  -0.00236  -0.00236   2.87919
    R2        2.60508   0.00027   0.00000   0.00055   0.00055   2.60563
    R3        2.67008  -0.00123   0.00000  -0.00285  -0.00284   2.66723
    R4        2.09162   0.00060   0.00000   0.00181   0.00181   2.09344
    R5        2.86822  -0.00077   0.00000  -0.00300  -0.00300   2.86522
    R6        2.66201  -0.00025   0.00000  -0.00056  -0.00056   2.66145
    R7        2.07846  -0.00006   0.00000  -0.00017  -0.00017   2.07829
    R8        2.87200  -0.00060   0.00000  -0.00192  -0.00192   2.87008
    R9        2.66736  -0.00102   0.00000  -0.00233  -0.00233   2.66502
   R10        2.08237   0.00028   0.00000   0.00085   0.00085   2.08321
   R11        2.88352  -0.00022   0.00000  -0.00054  -0.00054   2.88298
   R12        2.66311  -0.00198   0.00000  -0.00448  -0.00448   2.65864
   R13        2.08168   0.00021   0.00000   0.00064   0.00064   2.08232
   R14        2.86570  -0.00010   0.00000  -0.00031  -0.00031   2.86539
   R15        2.68359   0.00099   0.00000   0.00267   0.00267   2.68626
   R16        2.08295   0.00009   0.00000   0.00026   0.00026   2.08321
   R17        2.66714  -0.00242   0.00000  -0.00552  -0.00552   2.66162
   R18        2.06258  -0.00007   0.00000  -0.00020  -0.00020   2.06237
   R19        2.07776   0.00038   0.00000   0.00112   0.00112   2.07888
   R20        2.68128  -0.00264   0.00000  -0.00620  -0.00620   2.67508
   R21        1.82060  -0.00108   0.00000  -0.00198  -0.00198   1.81862
   R22        1.82095  -0.00084   0.00000  -0.00154  -0.00154   1.81941
   R23        1.82208  -0.00079   0.00000  -0.00144  -0.00144   1.82064
   R24        1.82128  -0.00139   0.00000  -0.00254  -0.00254   1.81875
   R25        2.05922   0.00012   0.00000   0.00035   0.00035   2.05957
   R26        2.07230   0.00048   0.00000   0.00140   0.00140   2.07370
   R27        2.06728   0.00010   0.00000   0.00031   0.00031   2.06759
    A1        1.88402  -0.00078   0.00000  -0.00373  -0.00374   1.88028
    A2        1.91404   0.00029   0.00000   0.00283   0.00284   1.91688
    A3        1.92425  -0.00007   0.00000  -0.00255  -0.00256   1.92169
    A4        1.90647   0.00064   0.00000   0.00607   0.00608   1.91255
    A5        1.93028   0.00009   0.00000  -0.00131  -0.00132   1.92896
    A6        1.90462  -0.00017   0.00000  -0.00119  -0.00119   1.90342
    A7        1.90601   0.00010   0.00000  -0.00094  -0.00094   1.90507
    A8        1.94808   0.00017   0.00000   0.00038   0.00038   1.94845
    A9        1.88292  -0.00027   0.00000  -0.00182  -0.00182   1.88109
   A10        1.87434  -0.00035   0.00000  -0.00151  -0.00151   1.87283
   A11        1.91149   0.00016   0.00000   0.00059   0.00059   1.91207
   A12        1.94080   0.00020   0.00000   0.00329   0.00329   1.94409
   A13        1.92706   0.00011   0.00000  -0.00095  -0.00095   1.92610
   A14        1.95549  -0.00019   0.00000  -0.00097  -0.00097   1.95452
   A15        1.89330  -0.00004   0.00000  -0.00057  -0.00057   1.89273
   A16        1.87475   0.00011   0.00000   0.00057   0.00057   1.87533
   A17        1.89152  -0.00011   0.00000   0.00017   0.00017   1.89168
   A18        1.92087   0.00012   0.00000   0.00181   0.00181   1.92268
   A19        1.91033   0.00010   0.00000   0.00087   0.00087   1.91120
   A20        1.93948  -0.00006   0.00000  -0.00072  -0.00072   1.93876
   A21        1.89410  -0.00016   0.00000  -0.00237  -0.00237   1.89173
   A22        1.89042  -0.00010   0.00000  -0.00050  -0.00050   1.88992
   A23        1.89748   0.00004   0.00000   0.00000   0.00000   1.89749
   A24        1.93156   0.00019   0.00000   0.00275   0.00275   1.93431
   A25        1.96560   0.00007   0.00000   0.00003   0.00003   1.96563
   A26        1.91234  -0.00036   0.00000   0.00041   0.00040   1.91274
   A27        1.90504   0.00011   0.00000  -0.00080  -0.00081   1.90424
   A28        1.85838   0.00045   0.00000   0.00349   0.00349   1.86187
   A29        1.90670  -0.00032   0.00000  -0.00387  -0.00387   1.90284
   A30        1.91509   0.00007   0.00000   0.00085   0.00085   1.91594
   A31        1.94124   0.00005   0.00000   0.00029   0.00029   1.94153
   A32        1.91123  -0.00014   0.00000  -0.00143  -0.00143   1.90980
   A33        1.89992  -0.00028   0.00000  -0.00217  -0.00217   1.89775
   A34        1.87655   0.00006   0.00000   0.00077   0.00077   1.87732
   A35        1.93783   0.00022   0.00000   0.00224   0.00224   1.94007
   A36        1.89641   0.00009   0.00000   0.00031   0.00030   1.89671
   A37        1.98838   0.00008   0.00000   0.00030   0.00030   1.98868
   A38        1.89120  -0.00062   0.00000  -0.00387  -0.00387   1.88733
   A39        1.89047  -0.00064   0.00000  -0.00401  -0.00401   1.88646
   A40        1.87810  -0.00074   0.00000  -0.00461  -0.00461   1.87349
   A41        1.97228  -0.00008   0.00000  -0.00037  -0.00038   1.97191
   A42        1.87317  -0.00080   0.00000  -0.00502  -0.00502   1.86815
   A43        1.86597  -0.00015   0.00000  -0.00101  -0.00101   1.86496
   A44        1.92790   0.00024   0.00000   0.00161   0.00161   1.92951
   A45        1.93579  -0.00011   0.00000  -0.00072  -0.00072   1.93507
   A46        1.91146   0.00000   0.00000   0.00008   0.00008   1.91154
   A47        1.91193   0.00003   0.00000  -0.00008  -0.00008   1.91185
   A48        1.91026  -0.00001   0.00000   0.00010   0.00010   1.91036
    D1        3.07864   0.00052   0.00000   0.00866   0.00865   3.08730
    D2       -1.13479   0.00025   0.00000   0.00642   0.00641  -1.12837
    D3        1.00239   0.00042   0.00000   0.00954   0.00953   1.01192
    D4        1.00324   0.00004   0.00000   0.00193   0.00193   1.00517
    D5        3.07299  -0.00024   0.00000  -0.00031  -0.00031   3.07268
    D6       -1.07301  -0.00006   0.00000   0.00280   0.00280  -1.07021
    D7       -1.09432   0.00010   0.00000   0.00321   0.00321  -1.09111
    D8        0.97543  -0.00017   0.00000   0.00097   0.00097   0.97641
    D9        3.11262   0.00000   0.00000   0.00408   0.00409   3.11670
   D10        2.96284   0.00008   0.00000   0.01331   0.01332   2.97615
   D11       -1.24013   0.00034   0.00000   0.01799   0.01798  -1.22215
   D12        0.85638   0.00060   0.00000   0.01957   0.01956   0.87595
   D13       -1.10226   0.00003   0.00000   0.00326   0.00326  -1.09900
   D14        3.11942   0.00043   0.00000   0.00253   0.00252   3.12194
   D15        1.00722   0.00003   0.00000   0.00113   0.00113   1.00834
   D16       -0.94780   0.00017   0.00000  -0.00273  -0.00273  -0.95053
   D17       -3.03666   0.00008   0.00000  -0.00217  -0.00217  -3.03883
   D18        1.12253   0.00008   0.00000  -0.00343  -0.00343   1.11910
   D19       -3.06300   0.00013   0.00000  -0.00174  -0.00174  -3.06475
   D20        1.13132   0.00003   0.00000  -0.00119  -0.00119   1.13014
   D21       -0.99268   0.00003   0.00000  -0.00244  -0.00244  -0.99512
   D22        1.11060  -0.00001   0.00000  -0.00515  -0.00515   1.10545
   D23       -0.97826  -0.00010   0.00000  -0.00459  -0.00459  -0.98285
   D24       -3.10226  -0.00010   0.00000  -0.00585  -0.00585  -3.10811
   D25        1.09336  -0.00025   0.00000  -0.01294  -0.01294   1.08042
   D26       -3.10127  -0.00025   0.00000  -0.01483  -0.01483  -3.11610
   D27       -1.01027  -0.00015   0.00000  -0.01314  -0.01315  -1.02342
   D28        0.94351   0.00008   0.00000   0.00260   0.00260   0.94610
   D29        3.03065  -0.00002   0.00000   0.00209   0.00209   3.03274
   D30       -1.12485   0.00007   0.00000   0.00348   0.00348  -1.12137
   D31        3.08045  -0.00002   0.00000   0.00120   0.00120   3.08165
   D32       -1.11559  -0.00011   0.00000   0.00069   0.00069  -1.11490
   D33        1.01210  -0.00002   0.00000   0.00208   0.00208   1.01417
   D34       -1.12791   0.00013   0.00000   0.00374   0.00375  -1.12416
   D35        0.95924   0.00003   0.00000   0.00323   0.00323   0.96247
   D36        3.08692   0.00012   0.00000   0.00462   0.00463   3.09155
   D37       -1.02939   0.00038   0.00000   0.01979   0.01978  -1.00960
   D38        3.13457   0.00028   0.00000   0.02118   0.02118  -3.12743
   D39        1.07872   0.00028   0.00000   0.01966   0.01966   1.09838
   D40       -3.05313  -0.00021   0.00000  -0.00303  -0.00303  -3.05615
   D41       -0.98824   0.00015   0.00000   0.00163   0.00163  -0.98661
   D42        1.10922   0.00008   0.00000   0.00243   0.00243   1.11165
   D43        1.11299  -0.00013   0.00000  -0.00237  -0.00236   1.11063
   D44       -3.10531   0.00023   0.00000   0.00229   0.00230  -3.10301
   D45       -1.00784   0.00015   0.00000   0.00309   0.00309  -1.00475
   D46       -0.98687  -0.00033   0.00000  -0.00538  -0.00538  -0.99226
   D47        1.07801   0.00003   0.00000  -0.00072  -0.00072   1.07729
   D48       -3.10771  -0.00004   0.00000   0.00007   0.00007  -3.10764
   D49        0.88370  -0.00015   0.00000  -0.00720  -0.00720   0.87650
   D50        2.98267  -0.00013   0.00000  -0.00689  -0.00689   2.97579
   D51       -1.22203  -0.00003   0.00000  -0.00557  -0.00557  -1.22760
   D52        3.13999  -0.00004   0.00000  -0.00467  -0.00467   3.13532
   D53       -1.07158  -0.00002   0.00000  -0.00445  -0.00445  -1.07603
   D54        0.99941  -0.00015   0.00000  -0.00619  -0.00619   0.99322
   D55        1.04370   0.00008   0.00000  -0.00747  -0.00747   1.03623
   D56        3.11532   0.00010   0.00000  -0.00725  -0.00725   3.10807
   D57       -1.09688  -0.00003   0.00000  -0.00899  -0.00899  -1.10587
   D58       -1.02331  -0.00008   0.00000  -0.00838  -0.00838  -1.03169
   D59        1.04832  -0.00006   0.00000  -0.00816  -0.00816   1.04015
   D60        3.11930  -0.00019   0.00000  -0.00991  -0.00990   3.10940
   D61        1.09385  -0.00018   0.00000  -0.00600  -0.00600   1.08785
   D62       -3.05896  -0.00004   0.00000  -0.00362  -0.00362  -3.06258
   D63       -0.99747  -0.00013   0.00000  -0.00579  -0.00579  -1.00326
   D64       -0.96345  -0.00001   0.00000  -0.00209  -0.00209  -0.96554
   D65       -3.05578   0.00009   0.00000  -0.00100  -0.00100  -3.05677
   D66        1.15512  -0.00018   0.00000  -0.00311  -0.00311   1.15201
   D67       -3.06898  -0.00005   0.00000  -0.00056  -0.00056  -3.06954
   D68       -0.99048  -0.00001   0.00000  -0.00017  -0.00017  -0.99065
   D69        1.13072   0.00006   0.00000   0.00056   0.00056   1.13129
         Item               Value     Threshold  Converged?
 Maximum Force            0.002645     0.000450     NO 
 RMS     Force            0.000485     0.000300     NO 
 Maximum Displacement     0.038542     0.001800     NO 
 RMS     Displacement     0.007710     0.001200     NO 
 Predicted change in Energy=-8.173529D-05
 GradGradGradGradGradGradGradGradGradGradGradGradGradGradGradGradGradGrad

                          Input orientation:                          
 ---------------------------------------------------------------------
 Center     Atomic      Atomic             Coordinates (Angstroms)
 Number     Number       Type             X           Y           Z
 ---------------------------------------------------------------------
      1          6           0        0.078301    0.366134    0.241808
      2          6           0       -0.514990    1.727552   -0.098651
      3          6           0        0.026753    2.185199   -1.438787
      4          6           0        1.545407    2.168640   -1.428301
      5          6           0        2.036842    0.786226   -1.010082
      6          6           0        3.544494    0.723616   -0.861020
      7          8           0       -0.377041    0.010831    1.493856
      8          8           0       -1.917622    1.669260   -0.211578
      9          8           0       -0.379660    3.498860   -1.751814
     10          8           0        2.063454    2.453705   -2.704900
     11          8           0        1.487285    0.448012    0.256524
     12          8           0        3.965376   -0.561400   -0.466845
     13          1           0       -0.232597   -0.383968   -0.511789
     14          1           0       -0.204715    2.434463    0.684632
     15          1           0       -0.323267    1.484229   -2.214278
     16          1           0        1.895989    2.907067   -0.689360
     17          1           0        1.719262    0.047123   -1.763823
     18          1           0       -2.275906    1.401799    0.640629
     19          1           0       -1.342145    3.522803   -1.748328
     20          1           0        1.628584    3.253907   -3.019196
     21          1           0        3.488485   -0.779084    0.340298
     22          1           0        4.013610    0.943573   -1.821551
     23          1           0        3.859437    1.485433   -0.132556
     24          6           0       -0.078924   -1.324811    1.855919
     25          1           0       -0.550555   -1.503063    2.822162
     26          1           0       -0.485257   -2.024714    1.114825
     27          1           0        1.001580   -1.473122    1.943175
 ---------------------------------------------------------------------
                    Distance matrix (angstroms):
                    1          2          3          4          5
     1  C    0.000000
     2  C    1.523603   0.000000
     3  C    2.477107   1.516210   0.000000
     4  C    2.861939   2.491539   1.518781   0.000000
     5  C    2.362116   2.868562   2.486237   1.525609   0.000000
     6  C    3.654931   4.250707   3.852862   2.531057   1.516297
     7  O    1.378840   2.345685   3.673053   4.109860   3.563393
     8  O    2.426397   1.408377   2.356445   3.704372   4.129787
     9  O    3.741421   2.426684   1.410270   2.362209   3.707834
    10  O    4.120908   3.737406   2.413149   1.406890   2.377731
    11  O    1.411438   2.402598   2.832852   2.408853   1.421510
    12  O    4.058554   5.044655   4.899105   3.772766   2.414632
    13  H    1.107799   2.170010   2.743576   3.243008   2.601538
    14  H    2.134052   1.099785   2.150493   2.756461   3.257809
    15  H    2.728325   2.138186   1.102388   2.139654   2.739965
    16  H    3.259970   2.748274   2.139340   1.101915   2.149574
    17  H    2.610954   3.254001   2.746199   2.154909   1.102387
    18  H    2.602681   1.937389   3.199989   4.412591   4.658709
    19  H    3.992852   2.574596   1.938783   3.205329   4.410375
    20  H    4.623501   3.931189   2.491122   1.927607   3.208218
    21  H    3.598692   4.743808   4.892414   3.948743   2.526062
    22  H    4.480797   4.908281   4.193229   2.783425   2.142627
    23  H    3.961057   4.381253   4.109182   2.738697   2.140279
    24  C    2.342939   3.650673   4.815229   5.062485   4.140882
    25  H    3.247704   4.355374   5.665002   5.995073   5.159609
    26  H    2.606896   3.943717   4.950400   5.308041   4.333312
    27  H    2.670197   4.088196   5.076541   4.992497   3.859811
                    6          7          8          9         10
     6  C    0.000000
     7  O    4.629464   0.000000
     8  O    5.581284   2.834127   0.000000
     9  O    4.888198   4.764528   2.843430   0.000000
    10  O    2.930287   5.436286   4.762455   2.823035   0.000000
    11  O    2.357323   2.279875   3.647459   4.102021   3.622817
    12  O    1.408468   4.798789   6.296878   6.084094   4.209164
    13  H    3.951597   2.049230   2.673047   4.078682   4.258401
    14  H    4.401433   2.560963   2.079129   2.664548   4.078467
    15  H    4.167663   3.990495   2.566518   2.067798   2.622409
    16  H    2.741258   4.280336   4.037830   2.580234   2.072676
    17  H    2.145733   3.874052   4.274076   4.039815   2.606863
    18  H    6.049128   2.503693   0.962371   3.703674   5.579348
    19  H    5.701053   4.876180   2.475560   0.962789   3.695417
    20  H    3.838073   5.908274   4.792640   2.387321   0.963440
    21  H    1.924684   4.110591   5.960281   6.135168   4.664212
    22  H    1.091362   5.580300   6.188549   5.082831   2.619906
    23  H    1.100098   4.771521   5.780523   4.964456   3.283300
    24  C    4.970611   1.415592   4.076740   6.031084   6.298257
    25  H    5.940821   2.021480   4.597399   6.780095   7.282683
    26  H    5.262715   2.073359   4.178092   6.224037   6.414239
    27  H    4.376709   2.074752   4.799922   6.346760   6.176742
                   11         12         13         14         15
    11  O    0.000000
    12  O    2.771842   0.000000
    13  H    2.059245   4.201961   0.000000
    14  H    2.644263   5.262201   3.061986   0.000000
    15  H    3.233683   5.062665   2.529200   3.052979   0.000000
    16  H    2.666211   4.045014   3.923432   2.554245   3.045479
    17  H    2.072758   2.664109   2.358640   3.923776   2.537737
    18  H    3.901135   6.635831   2.948245   2.314771   3.459782
    19  H    4.634592   6.818555   4.245349   2.897848   2.326156
    20  H    4.315477   5.150889   4.794290   4.213172   2.754881
    21  H    2.348954   0.962440   3.837789   4.907666   5.116435
    22  H    3.308518   2.025463   4.637684   5.128155   4.388057
    23  H    2.618154   2.076656   4.514778   4.252739   4.672106
    24  C    2.855517   4.725927   2.552419   3.939527   4.951456
    25  H    3.813396   5.665503   3.531105   4.493634   5.860146
    26  H    3.277496   4.944805   2.324168   4.488656   4.839613
    27  H    2.602202   3.927279   2.955722   4.278819   5.271201
                   16         17         18         19         20
    16  H    0.000000
    17  H    3.060226   0.000000
    18  H    4.630271   4.855709   0.000000
    19  H    3.462089   4.631717   3.328316   0.000000
    20  H    2.370641   3.444945   5.663008   3.242320   0.000000
    21  H    4.145352   2.870557   6.170467   6.797321   5.568703
    22  H    3.101851   2.463937   6.769809   5.944905   3.529921
    23  H    2.487207   3.051248   6.184435   5.815329   4.054244
    24  C    5.318600   4.268279   3.706489   6.171360   6.902679
    25  H    6.145373   5.346626   4.021709   6.839248   7.842121
    26  H    5.766097   4.176006   3.895161   6.301337   7.030098
    27  H    5.188088   4.070386   4.550133   6.639239   6.882082
                   21         22         23         24         25
    21  H    0.000000
    22  H    2.813698   0.000000
    23  H    2.342911   1.780474   0.000000
    24  C    3.914248   5.951318   5.230888   0.000000
    25  H    4.795586   6.955696   6.091756   1.089879   0.000000
    26  H    4.235813   6.137820   5.723063   1.097357   1.786445
    27  H    3.039013   5.393135   4.607499   1.094120   1.783995
                   26         27
    26  H    0.000000
    27  H    1.789162   0.000000
 Symmetry turned off by external request.
 Stoichiometry    C7H14O6
 Framework group  C1[X(C7H14O6)]
 Deg. of freedom    75
 Full point group                 C1      NOp   1
 Rotational constants (GHZ):      0.8205153      0.7849228      0.4175445
 Standard basis: 6-31+G(2df,p) (6D, 7F)
 Integral buffers will be    131072 words long.
 Raffenetti 2 integral format.
 Two-electron integral symmetry is turned off.
   486 basis functions,   722 primitive gaussians,   525 cartesian basis functions
    52 alpha electrons       52 beta electrons
       nuclear repulsion energy       942.9189726286 Hartrees.
 NAtoms=   27 NActive=   27 NUniq=   27 SFac= 1.00D+00 NAtFMM=   50 NAOKFM=F Big=F
 One-electron integrals computed using PRISM.
 NBasis=   486 RedAO= T  NBF=   486
 NBsUse=   486 1.00D-06 NBFU=   486
 Initial guess read from the read-write file.
 B after Tr=     0.000000    0.000000    0.000000
         Rot=    1.000000    0.000000    0.000000    0.000000 Ang=   0.00 deg.
 Harris functional with IExCor= 1009 diagonalized for initial guess.
 ExpMin= 4.38D-02 ExpMax= 5.48D+03 ExpMxC= 8.25D+02 IAcc=2 IRadAn=         0 AccDes= 0.00D+00
 HarFok:  IExCor= 1009 AccDes= 0.00D+00 IRadAn=         0 IDoV= 1
 ScaDFX=  1.000000  1.000000  1.000000  1.000000
 FoFCou: FMM=F IPFlag=           0 FMFlag=      100000 FMFlg1=           0
         NFxFlg=           0 DoJE=T BraDBF=F KetDBF=T FulRan=T
         Omega=  0.000000  0.000000  1.000000  0.000000  0.000000 ICntrl=     500 IOpCl=  0
         NMat0=    1 NMatS0=    1 NMatT0=    0 NMatD0=    1 NMtDS0=    0 NMtDT0=    0
         I1Cent=           4 NGrid=           0.
 Symmetry not used in FoFCou.
 Requested convergence on RMS density matrix=1.00D-06 within 128 cycles.
 Requested convergence on MAX density matrix=1.00D-04.
 Requested convergence on             energy=1.00D-04.
 No special actions if energy rises.
 SCF Done:  E(RM062X) =  -726.291606807     A.U. after    5 cycles
             Convg  =    0.8758D-06             -V/T =  2.0058
 QCSCF skips out because SCF is already converged.
 Calling FoFJK, ICntrl=      2127 FMM=F ISym2X=0 I1Cent= 0 IOpClX= 0 NMat=1 NMatS=1 NMatT=0.
 -------------------------------------------------------------------
 Center     Atomic                   Forces (Hartrees/Bohr)
 Number     Number              X              Y              Z
 -------------------------------------------------------------------
      1        6           0.001227546    0.000458917   -0.000349225
      2        6          -0.000101758   -0.000189027   -0.000281393
      3        6          -0.000003591    0.000324677    0.000344648
      4        6           0.000172440   -0.000284318   -0.000427731
      5        6          -0.000256951    0.000333977   -0.000407614
      6        6           0.000401165   -0.000764017    0.000280381
      7        8          -0.000145339   -0.000703675    0.000057263
      8        8           0.000073518    0.000445053    0.000188771
      9        8           0.000035758   -0.000242361   -0.000595937
     10        8           0.000001401    0.000161884    0.000378879
     11        8          -0.000720635   -0.000403214    0.000358284
     12        8          -0.000311147    0.000523153    0.000019209
     13        1          -0.000221428   -0.000119700   -0.000041153
     14        1          -0.000023029    0.000103304    0.000003062
     15        1           0.000078323   -0.000041689   -0.000087207
     16        1           0.000040063    0.000022508    0.000151526
     17        1          -0.000073311   -0.000079849    0.000053062
     18        1          -0.000127144   -0.000295769    0.000063830
     19        1          -0.000156226    0.000151613    0.000364510
     20        1          -0.000019305    0.000029058   -0.000278051
     21        1           0.000091491   -0.000281919    0.000085438
     22        1          -0.000164869    0.000191332   -0.000063450
     23        1           0.000084103    0.000197619   -0.000019265
     24        6           0.000079984    0.000978190    0.000109881
     25        1           0.000027420   -0.000183328    0.000065804
     26        1           0.000018087   -0.000145101   -0.000003560
     27        1          -0.000006566   -0.000187320    0.000030038
 -------------------------------------------------------------------
 Cartesian Forces:  Max     0.001227546 RMS     0.000313344

 GradGradGradGradGradGradGradGradGradGradGradGradGradGradGradGradGradGrad
 Berny optimization.
 Using GEDIIS/GDIIS optimizer.
 Internal  Forces:  Max     0.000867651 RMS     0.000145710
 Search for a local minimum.
 Step number   2 out of a maximum of  154
 All quantities printed in internal units (Hartrees-Bohrs-Radians)
 Mixed Optimization -- En-DIIS/RFO-DIIS
 Swaping is turned off.
 Update second derivatives using D2CorX and points    1    2
 DE= -9.61D-05 DEPred=-8.17D-05 R= 1.18D+00
 SS=  1.41D+00  RLast= 6.56D-02 DXNew= 5.0454D-01 1.9693D-01
 Trust test= 1.18D+00 RLast= 6.56D-02 DXMaxT set to 3.00D-01
 ITU=  1  0
     Eigenvalues ---    0.00545   0.00747   0.00752   0.01130   0.01442
     Eigenvalues ---    0.01536   0.01542   0.01563   0.01571   0.01875
     Eigenvalues ---    0.03065   0.03389   0.04556   0.04934   0.04976
     Eigenvalues ---    0.05062   0.05127   0.05398   0.05718   0.05965
     Eigenvalues ---    0.06102   0.06377   0.06688   0.06898   0.07085
     Eigenvalues ---    0.07986   0.09304   0.10196   0.10612   0.11036
     Eigenvalues ---    0.11382   0.11496   0.13908   0.14029   0.15871
     Eigenvalues ---    0.16000   0.16000   0.16000   0.16000   0.16000
     Eigenvalues ---    0.16333   0.16861   0.17383   0.19134   0.19990
     Eigenvalues ---    0.20234   0.22072   0.24995   0.27893   0.29538
     Eigenvalues ---    0.29673   0.30396   0.30820   0.32809   0.33413
     Eigenvalues ---    0.33443   0.33493   0.33678   0.33709   0.34040
     Eigenvalues ---    0.34358   0.34646   0.34838   0.39727   0.40822
     Eigenvalues ---    0.42862   0.43744   0.43924   0.44206   0.45347
     Eigenvalues ---    0.49397   0.54596   0.54676   0.54725   0.56862
 En-DIIS/RFO-DIIS IScMMF=        0 using points:     2    1
 RFO step:  Lambda=-9.43978286D-06.
 DidBck=F Rises=F RFO-DIIS coefs:    1.21398   -0.21398
 Iteration  1 RMS(Cart)=  0.00673566 RMS(Int)=  0.00005090
 Iteration  2 RMS(Cart)=  0.00005943 RMS(Int)=  0.00000103
 Iteration  3 RMS(Cart)=  0.00000000 RMS(Int)=  0.00000103
 Variable       Old X    -DE/DX   Delta X   Delta X   Delta X     New X
                                  (DIIS)     (GDIIS)  (Total)
    R1        2.87919   0.00019  -0.00051   0.00048  -0.00003   2.87916
    R2        2.60563   0.00029   0.00012   0.00075   0.00086   2.60649
    R3        2.66723  -0.00087  -0.00061  -0.00265  -0.00326   2.66397
    R4        2.09344   0.00018   0.00039   0.00076   0.00115   2.09459
    R5        2.86522   0.00010  -0.00064  -0.00003  -0.00067   2.86455
    R6        2.66145   0.00003  -0.00012   0.00006  -0.00006   2.66138
    R7        2.07829   0.00006  -0.00004   0.00020   0.00016   2.07846
    R8        2.87008   0.00013  -0.00041   0.00046   0.00004   2.87012
    R9        2.66502   0.00000  -0.00050  -0.00015  -0.00065   2.66438
   R10        2.08321   0.00006   0.00018   0.00028   0.00046   2.08367
   R11        2.88298   0.00004  -0.00012   0.00027   0.00015   2.88313
   R12        2.65864  -0.00006  -0.00096  -0.00046  -0.00142   2.65721
   R13        2.08232   0.00013   0.00014   0.00053   0.00066   2.08298
   R14        2.86539   0.00015  -0.00007   0.00055   0.00049   2.86587
   R15        2.68626   0.00008   0.00057   0.00056   0.00113   2.68740
   R16        2.08321   0.00003   0.00006   0.00014   0.00020   2.08341
   R17        2.66162  -0.00026  -0.00118  -0.00107  -0.00225   2.65937
   R18        2.06237   0.00002  -0.00004   0.00005   0.00001   2.06238
   R19        2.07888   0.00016   0.00024   0.00064   0.00088   2.07976
   R20        2.67508  -0.00035  -0.00133  -0.00139  -0.00272   2.67237
   R21        1.81862   0.00018  -0.00042   0.00028  -0.00015   1.81847
   R22        1.81941   0.00016  -0.00033   0.00026  -0.00007   1.81934
   R23        1.82064   0.00012  -0.00031   0.00018  -0.00012   1.82051
   R24        1.81875   0.00009  -0.00054   0.00004  -0.00050   1.81825
   R25        2.05957   0.00007   0.00008   0.00028   0.00035   2.05992
   R26        2.07370   0.00010   0.00030   0.00044   0.00074   2.07444
[...]
 00054467,-0.00007723,-0.00067794,-0.00055716,0.19005856,-0.35791334,0.
 15149494,0.00026796,-0.00010255,0.00003077,-0.00016199,0.00012595,-0.0
 0019658,-0.00002026,-0.00000974,-0.00001257,0.00003369,0.00002547,-0.0
 0017836,-0.00058575,-0.00060520,0.00012355,0.00018335,0.00070406,-0.00
 155211,-0.00008915,0.00033481,-0.00013316,0.00010194,0.00001347,0.0000
 3432,-0.00025134,-0.00020101,0.00002107,-0.19371461,0.36504968,-0.0007
 3977,0.00028787,-0.00009523,-0.00030347,0.00015877,-0.00037932,0.00077
 841,0.00230503,0.00102967,-0.01624288,0.03741010,-0.02021946,0.0030782
 0,-0.00230792,-0.00466191,0.00006444,-0.00002172,0.00002731,0.00013029
 ,-0.00026120,0.00013042,-0.00039499,-0.00035971,0.00035355,-0.00088164
 ,-0.00052936,-0.00055883,-0.04594168,0.11551501,-0.08291774,0.00026816
 ,0.00208974,-0.00111885,0.00007814,-0.00030534,0.00021915,0.00007184,-
 0.00003657,0.00001620,0.00000201,0.00000137,-0.00010937,0.00001981,-0.
 00040314,0.00000129,-0.00069397,0.00001816,-0.00012844,0.00007455,0.00
 006379,0.00019084,-0.00002004,0.00001736,-0.00004246,-0.00008116,-0.00
 062573,0.00067717,0.06105131,-0.15322982,0.10766291,-0.00248787,-0.001
 01917,0.00079507,0.00015677,0.00056821,-0.00012335,-0.00005222,0.00029
 145,-0.00034770,-0.00008693,0.00040949,0.00004058,0.00151777,0.0029880
 3,-0.00428600,0.00602036,0.00605879,-0.01239411,0.00038898,0.00005040,
 -0.00038404,0.00059099,-0.00045887,0.00014295,0.00003794,-0.00034107,0
 .00021873,-0.00026761,-0.00041786,0.00049080,0.00108983,-0.00077126,0.
 00067115,-0.14562098,-0.05426126,0.23060718,0.00021193,0.00009490,0.00
 006113,0.00000726,-0.00002639,0.00000241,-0.00004554,-0.00001648,-0.00
 000388,0.00003972,-0.00014683,0.00000061,-0.00024386,-0.00010143,0.000
 09359,-0.00015733,0.00009672,0.00005684,-0.00003710,0.00007117,-0.0000
 6343,-0.00001647,0.00002180,0.00006435,0.13980549,0.00179943,0.0012217
 6,-0.00127497,-0.00007624,-0.00023174,0.00005704,0.00018660,-0.0000314
 6,-0.00000261,-0.00061953,-0.00024074,0.00037918,0.00032676,0.00063669
 ,0.00205320,-0.01838254,-0.01641036,0.03930063,-0.00006629,-0.00096601
 ,0.00074440,-0.00043377,0.00013248,-0.00001693,-0.00017372,0.00013655,
 -0.00007460,0.00019715,0.00005122,-0.00028442,-0.00177805,-0.00080897,
 -0.00030900,-0.02610285,-0.05786710,0.07333202,-0.00038961,-0.00008810
 ,-0.00011846,0.00002069,-0.00002883,-0.00001892,-0.00003778,-0.0000077
 6,-0.00002627,-0.00001950,-0.00011884,-0.00005003,-0.00009797,-0.00002
 168,-0.00031120,0.00004750,0.00003364,-0.00004683,0.00002585,0.0000003
 8,0.00001309,0.00007291,0.00000873,0.00000082,0.04418648,0.07948793,-0
 .00095504,-0.00031795,0.00064241,-0.00003763,0.00003729,0.00006103,-0.
 00032369,-0.00019031,0.00013017,0.00088390,0.00049671,-0.00060536,0.00
 086996,-0.00024917,-0.00006637,0.00568129,0.00313254,-0.01174742,0.000
 02695,0.00046716,-0.00081395,0.00021176,-0.00001345,-0.00008881,0.0003
 4031,-0.00019086,-0.00002334,-0.00009298,-0.00001987,0.00012805,0.0010
 7669,-0.00120714,-0.00037611,0.20862882,0.11168926,-0.37274697,-0.0001
 1213,-0.00004657,-0.00008122,0.00000914,-0.00003519,-0.00000826,-0.000
 00228,-0.00000226,-0.00002358,0.00001213,-0.00012811,-0.00000075,-0.00
 040406,0.00011380,-0.00042060,-0.00000025,-0.00001846,0.00005146,-0.00
 001736,-0.00002620,0.00003550,-0.00003071,0.00004833,-0.00003498,-0.21
 494704,-0.11400066,0.38304005,0.00178767,-0.00004269,0.00120669,0.0000
 3822,-0.00034413,0.00013681,-0.00011750,-0.00015223,0.00010410,-0.0002
 5175,-0.00015052,0.00138089,-0.00910914,-0.00489663,0.02942283,-0.1062
 1454,-0.02451723,0.10781706,-0.00105105,-0.00035234,0.00071618,-0.0001
 5626,0.00024623,-0.00015501,0.00017441,0.00009565,-0.00020051,0.000567
 15,-0.00013425,-0.00050419,-0.00958829,-0.00030774,-0.00034138,0.00721
 633,0.00518808,-0.01257601,-0.00019477,-0.00008180,-0.00012635,0.00000
 082,0.00002051,-0.00001234,-0.00001807,-0.00001514,-0.00000996,-0.0000
 3170,0.00008393,-0.00023122,0.00116527,-0.00057492,-0.00035651,0.00007
 504,-0.00005280,-0.00000463,-0.00001416,-0.00001677,0.00002793,0.00028
 117,0.00003874,-0.00029607,-0.00046809,0.00250647,-0.00115457,0.110286
 84,-0.00036766,0.00031761,0.00019643,-0.00005825,0.00007155,-0.0000860
 6,-0.00003913,0.00008925,0.00001295,-0.00015190,0.00023104,-0.00079995
 ,-0.00335608,0.00025863,-0.00070487,-0.01815090,-0.05439675,0.03335926
 ,0.00014031,0.00015737,-0.00023073,0.00004300,-0.00005861,0.00004836,-
 0.00004362,-0.00004105,0.00004840,0.00008679,-0.00073119,0.00061274,0.
 00184444,0.00079610,-0.00028334,-0.01393953,-0.01570152,0.03570499,0.0
 0016004,-0.00000213,0.00002017,-0.00000918,0.00000097,0.00001499,-0.00
 000697,-0.00000307,0.00000744,-0.00002616,-0.00001757,0.00005794,0.000
 00274,0.00008412,0.00033389,-0.00002171,0.00000596,0.00000544,-0.00000
 009,0.00000890,-0.00000910,0.00008791,-0.00004377,0.00012811,0.0023025
 7,-0.00590298,0.00226645,0.02180252,0.06977726,-0.00021933,0.00012735,
 0.00051706,-0.00003553,-0.00000372,-0.00001047,-0.00006906,-0.00009526
 ,0.00005136,0.00139570,0.00002733,-0.00051346,-0.00130984,-0.00204047,
 0.00296432,0.10692972,0.04275376,-0.26298458,-0.00021814,-0.00009466,0
 .00013276,0.00002779,-0.00001530,0.00001352,0.00006691,-0.00006566,0.0
 0004200,-0.00110277,0.00087934,-0.00049726,-0.00180507,0.00008917,0.00
 120211,0.00243910,0.00764569,-0.00750281,0.00008096,-0.00000486,0.0000
 0254,-0.00001037,0.00001005,0.00000202,0.00000954,0.00000214,0.0000015
 2,0.00016476,0.00009027,0.00001086,0.00042082,-0.00014829,0.00046617,-
 0.00001058,0.00000420,0.00000081,0.00000456,-0.00001800,0.00000309,-0.
 00025805,-0.00000209,-0.00004225,-0.00165505,0.00073151,0.00147495,-0.
 11496094,-0.05291858,0.28129417,-0.00033340,-0.00021530,-0.00018148,0.
 00007838,-0.00004512,-0.00010164,0.00007432,0.00006194,0.00008913,0.00
 107769,-0.00248393,-0.00053342,-0.01475383,-0.02206299,-0.02643283,-0.
 07290196,-0.05063014,-0.04940994,0.00005018,0.00009764,0.00023936,0.00
 007598,0.00000939,0.00005164,-0.00014915,0.00024188,0.00010138,0.00007
 612,0.00021428,0.00026563,0.00369954,0.00088637,-0.00022977,0.00548391
 ,0.01311582,0.00692613,0.00027126,0.00022003,0.00024478,-0.00003563,0.
 00005843,0.00006077,0.00022197,0.00016010,0.00015285,-0.00000705,0.001
 09674,0.00035593,-0.00604727,0.00028096,0.00002875,-0.00000590,-0.0000
 1009,-0.00000760,-0.00000272,0.00001759,-0.00002599,0.00000035,-0.0000
 1577,-0.00007926,-0.00025471,-0.00095783,0.00011519,0.00564940,0.00965
 095,0.01014706,0.07778445,0.00001752,0.00002872,0.00020794,-0.00005172
 ,-0.00004281,-0.00002739,0.00018592,0.00041602,0.00013534,-0.00010553,
 0.00081197,0.00060962,-0.00043454,0.00044022,-0.00193198,-0.05122440,-
 0.15330287,-0.11165363,-0.00004069,0.00016040,-0.00003688,0.00004458,0
 .00003416,0.00000768,-0.00015790,0.00002391,-0.00000129,-0.00020138,0.
 00003635,-0.00009987,0.00021634,0.00022722,0.00013897,-0.00143375,-0.0
 4067361,-0.01278154,0.00014716,0.00001165,-0.00000776,-0.00002100,0.00
 002520,0.00001677,0.00017914,-0.00010729,-0.00002602,0.00001760,0.0003
 0201,-0.00007190,0.00056783,0.00046245,0.00002107,-0.00000284,-0.00002
 049,-0.00000050,-0.00001899,0.00003337,-0.00000666,-0.00002892,-0.0000
 6676,0.00001668,0.00061253,0.00017363,-0.00156222,0.00139536,0.0052481
 2,0.00302330,0.05029246,0.18591961,0.00050454,0.00013218,0.00018152,-0
 .00000874,-0.00008016,-0.00000782,0.00007916,0.00019566,0.00013356,-0.
 00017901,-0.00089218,-0.00031744,0.00017026,-0.00381412,-0.00488329,-0
 .05063608,-0.11504466,-0.17398970,-0.00018263,-0.00001979,0.00010398,-
 0.00003620,0.00007625,-0.00000914,-0.00011964,0.00014800,0.00000715,0.
 00009379,0.00058557,0.00012519,-0.00033230,0.00054970,0.00170081,0.002
 68528,0.01078406,0.01303238,0.00016906,-0.00000212,-0.00012579,-0.0000
 2844,0.00001902,0.00003178,0.00018337,0.00001022,0.00004434,-0.0003210
 3,0.00060851,0.00011116,-0.00109519,0.00045082,0.00095783,0.00001749,-
 0.00002487,-0.00000744,-0.00000096,0.00000667,-0.00000508,-0.00015140,
 0.00003173,0.00000346,0.00071516,0.00003525,0.00125384,-0.00978038,-0.
 01782584,-0.01662358,0.05824830,0.12403866,0.17830700,0.00491955,-0.01
 451981,0.00053894,-0.00107120,-0.00000366,0.00166536,0.00050794,0.0000
 2691,-0.00017953,0.00026278,-0.00000424,-0.00017424,-0.00060644,0.0000
 4878,0.00045522,0.00031961,-0.00066030,0.00027884,-0.07985989,0.054169
 60,-0.00386189,0.00082111,-0.00006735,-0.00048538,-0.00010481,-0.00035
 985,0.00030344,-0.00026636,0.00005625,0.00000717,-0.00134129,-0.000445
 88,0.00146041,-0.00016089,0.00062883,-0.00044724,-0.00053485,0.0009459
 1,0.00055079,0.00003628,-0.00008251,0.00011748,-0.00006039,-0.00002740
 ,-0.00000973,-0.00001903,-0.00005309,-0.00000753,0.00003281,-0.0000853
 0,-0.00016493,0.00047785,-0.00005463,0.00036306,-0.00003502,0.00006882
 ,-0.00007313,0.00008374,0.00003527,-0.00003760,-0.00048063,-0.00040906
 ,0.00063425,-0.00003301,0.00009243,-0.00006080,-0.00008498,0.00004384,
 0.00001042,0.58872988,-0.00973755,-0.02402616,0.02363952,-0.00019925,-
 0.00009765,-0.00079064,-0.00020123,0.00002582,0.00063185,-0.00037401,-
 0.00054412,0.00029249,0.00036984,-0.00010638,0.00263787,-0.00059049,0.
 00126251,-0.00109241,0.03844739,-0.22934870,0.04978572,-0.00084082,0.0
 0133250,-0.00123926,-0.00001441,0.00118829,-0.00098484,0.00043910,0.00
 050792,-0.00084953,0.00745463,0.00050845,-0.00468759,0.00056380,-0.001
 24819,0.00044947,0.00219173,0.00392021,-0.00650376,0.00008311,-0.00019
 189,0.00026232,0.00001101,0.00004820,0.00003990,0.00001375,-0.00003007
 ,-0.00001919,0.00000180,0.00010284,-0.00047811,0.00165015,-0.00111427,
 0.00030699,0.00017123,-0.00028392,0.00030395,-0.00009260,-0.00011190,0
 .00012178,0.00000556,0.00082571,-0.00048202,0.00035434,-0.00016913,0.0
 0005043,0.00002648,-0.00014385,0.00002808,0.01783673,0.49059700,-0.005
 25051,0.04449532,-0.02504133,0.00384074,0.00059399,-0.00532797,-0.0006
 8256,0.00138899,0.00090956,-0.00000765,0.00004872,-0.00013470,-0.00049
 173,0.00040214,-0.00012208,0.00019617,-0.00047608,0.00031447,0.0064262
 2,0.01673834,-0.09110994,-0.00016531,-0.00098425,0.00078702,0.00006424
 ,0.00022248,-0.00054295,-0.00009705,-0.00010658,0.00013779,-0.00208770
 ,0.00063186,0.00119586,-0.00016233,0.00036972,-0.00022700,-0.00037118,
 0.00292020,0.00183785,0.00006116,0.00024708,0.00026360,-0.00006397,-0.
 00014377,-0.00001358,0.00001543,-0.00002488,0.00000228,-0.00000819,-0.
 00009416,0.00000443,-0.00087491,0.00049599,-0.00026064,0.00006536,0.00
 008530,-0.00005228,0.00001169,0.00003974,-0.00002245,-0.00023410,-0.00
 032886,0.00029643,-0.00009443,0.00007133,-0.00002232,-0.00003994,0.000
 03328,-0.00002201,-0.02445928,0.01424467,0.61441714,-0.00118525,0.0021
 4011,-0.00108156,0.00033882,0.00024390,-0.00034080,-0.00012857,0.00007
 906,0.00004589,-0.00006738,0.00006946,0.00006691,0.00026818,-0.0000385
 9,-0.00025804,-0.00000086,0.00013146,-0.00002788,0.00545486,0.00289836
 ,-0.01050776,0.00000379,-0.00008392,0.00005374,0.00004093,0.00002852,-
 0.00006025,0.00003101,-0.00008024,0.00005936,0.00060508,-0.00066481,0.
 00043607,-0.00008457,-0.00011930,0.00004559,-0.00002610,0.00004242,0.0
 0021080,-0.00000948,0.00002221,0.00000984,0.00000292,-0.00000353,-0.00
 000042,0.00000101,-0.00000252,-0.00000216,-0.00001349,0.00000905,0.000
 03838,-0.00000565,0.00006634,-0.00005097,0.00000846,0.00000365,-0.0000
 0017,-0.00001216,0.00000391,0.00000583,0.00026817,0.00010461,-0.000078
 64,-0.00000762,-0.00001896,0.00001012,0.00000686,-0.00002372,-0.000007
 97,-0.10826285,-0.01979544,0.11452485,0.10864624,0.00246025,-0.0057426
 3,-0.00149216,-0.00105081,0.00012398,0.00182167,0.00034134,-0.00031694
 ,-0.00033560,0.00012781,0.00005488,-0.00005603,-0.00013473,0.00003097,
 -0.00023253,0.00005324,-0.00011839,0.00012509,-0.01418523,-0.01570506,
 0.03867333,0.00027505,-0.00000483,-0.00011110,-0.00002380,-0.00029727,
 0.00030810,-0.00007949,-0.00002314,0.00006409,-0.00043455,0.00039699,0
 .00033561,-0.00001861,0.00014109,-0.00004009,0.00013306,0.00021806,0.0
 0046947,-0.00003819,0.00003523,-0.00007678,-0.00000278,0.00001739,0.00
 001527,-0.00001200,-0.00000091,-0.00000032,0.00000588,-0.00000949,0.00
 004732,-0.00004410,0.00002773,0.00012313,-0.00005005,0.00003213,-0.000
 02886,0.00002410,0.00001368,-0.00001595,-0.00003959,-0.00008446,0.0000
 1168,-0.00003309,0.00000896,-0.00000842,-0.00000443,0.00001298,-0.0000
 0074,-0.01371761,-0.05111447,0.02414047,0.01688775,0.06600352,-0.00169
 205,0.00151294,0.00176687,0.00086595,-0.00003896,-0.00033089,-0.000126
 29,0.00001999,0.00020761,-0.00007088,-0.00005372,0.00007240,-0.0000436
 6,-0.00009185,0.00017259,-0.00006086,0.00005677,-0.00006096,0.00239895
 ,0.00549513,-0.00903687,-0.00032927,0.00002504,0.00002417,-0.00002819,
 0.00020820,-0.00017974,0.00005988,0.00005290,-0.00008868,0.00031043,-0
 .00004946,0.00001151,0.00008847,-0.00004969,0.00004449,0.00003865,0.00
 005374,0.00044376,-0.00004402,0.00010185,-0.00003026,0.00001232,0.0000
 0085,-0.00000353,0.00000464,0.00000680,-0.00000359,-0.00000343,0.00001
 206,0.00000344,0.00014435,0.00002445,-0.00009997,0.00003995,-0.0000300
 5,0.00002725,-0.00001500,-0.00001921,0.00001847,-0.00003120,0.00003842
 ,-0.00006819,0.00002072,-0.00000955,0.00000064,0.00000753,-0.00000035,
 0.00000747,0.10969474,0.03593220,-0.26560282,-0.11934674,-0.04468007,0
 .28489702,0.00015463,-0.00044572,0.00015137,0.00017332,0.00009607,0.00
 024472,-0.00000321,-0.00008041,-0.00001317,0.00000021,-0.00001652,0.00
 003252,0.00005926,-0.00014290,-0.00015097,-0.00003363,-0.00002444,0.00
 000329,0.00618014,0.00830284,0.00686650,-0.00014245,-0.00011559,0.0000
 2447,-0.00002305,0.00003387,0.00000768,0.00000619,0.00000932,0.0000101
 4,-0.00015069,0.00016227,0.00018921,0.00010514,0.00010609,0.00009401,-
 0.00015835,-0.00039804,0.00022441,-0.00005670,0.00005533,-0.00006134,0
 .00001471,0.00000399,0.00000924,-0.00000163,0.00002121,0.00000111,0.00
 001869,0.00001366,0.00009086,0.00003192,0.00010827,0.00001779,0.000010
 42,0.00000181,-0.00000675,-0.00000180,-0.00000651,0.00000162,-0.000014
 94,-0.00009528,-0.00024954,-0.00000124,-0.00000265,0.00000771,0.000020
 82,0.00003467,0.00000535,-0.08848331,-0.06000150,-0.06736943,0.0060510
 3,0.00978239,0.01048806,0.08569663,0.00163411,0.00140536,-0.00846172,0
 .00019896,0.00017229,0.00052095,0.00013532,0.00004483,-0.00002718,0.00
 005448,0.00004708,-0.00003738,-0.00012605,-0.00005092,-0.00024928,0.00
 003654,-0.00011635,0.00012997,-0.00703110,-0.04243309,-0.01344308,0.00
 015013,0.00000509,0.00021953,0.00000206,-0.00009631,0.00010098,-0.0000
 5077,-0.00003946,0.00009384,-0.00060129,0.00004443,0.00103084,-0.00002
 279,0.00012681,-0.00003129,-0.00021751,0.00071862,0.00167875,-0.000009
 46,0.00038364,0.00005318,-0.00002175,-0.00001907,0.00008222,0.00000599
 ,0.00001551,0.00000324,-0.00001790,-0.00000486,0.00008879,-0.00031766,
 -0.00000050,-0.00020729,-0.00002156,0.00002055,-0.00004331,0.00000868,
 0.00000984,-0.00001500,-0.00000726,-0.00007239,0.00000754,-0.00003926,
 0.00001153,-0.00000737,0.00000875,0.00001622,-0.00000135,-0.05785110,-
 0.14267267,-0.10530290,0.00201610,0.00479918,0.00300040,0.06186819,0.1
 7399087,0.00105158,0.00302018,0.00445329,-0.00008329,0.00045761,0.0003
 1062,0.00002376,-0.00002526,-0.00005515,0.00000483,0.00004956,-0.00001
 815,0.00015092,-0.00000854,-0.00028004,0.00002884,-0.00006764,0.000013
 12,0.00474954,0.00791444,0.00769984,0.00015386,-0.00005876,0.00005461,
 0.00001491,-0.00010392,0.00006971,-0.00000915,-0.00004487,0.00007401,-
 0.00039794,-0.00069040,-0.00029789,-0.00001830,0.00008014,0.00001029,-
 0.00080455,-0.00131129,0.00057001,-0.00005706,0.00009779,-0.00022895,0
 .00000002,-0.00001420,-0.00002258,-0.00000248,0.00000871,0.00000374,0.
 00001388,-0.00000528,0.00003575,-0.00009741,-0.00003445,-0.00002905,-0
 .00002142,0.00000991,-0.00001433,-0.00000076,0.00000600,-0.00000919,0.
 00001894,-0.00006610,-0.00004191,-0.00001259,0.00000723,0.00000666,0.0
 0000118,0.00001882,0.00000107,-0.06590152,-0.11125642,-0.17725350,-0.0
 1205338,-0.01655880,-0.01654177,0.07259264,0.11976859,0.18281076,-0.00
 233196,-0.00023984,0.00351936,0.00000969,-0.00009598,-0.00014112,-0.00
 011159,0.00002163,0.00012983,-0.00012774,-0.00001761,0.00008720,0.0003
 7240,-0.00011140,-0.00011447,-0.00000100,0.00006881,-0.00010916,-0.002
 59539,0.01102086,-0.00494614,0.00007820,0.00020984,-0.00015014,0.00004
 565,0.00012566,-0.00014216,0.00010337,-0.00001443,-0.00003357,0.001179
 14,-0.00150398,0.00022256,0.00005602,-0.00012197,0.00005171,0.00007422
 ,-0.00009552,-0.00023914,-0.00000147,-0.00001752,0.00001659,0.00001021
 ,-0.00000070,-0.00000800,0.00000547,0.00000321,-0.00000165,0.00000261,
 0.00003608,-0.00003530,0.00020330,-0.00020672,0.00005145,0.00001002,-0
 .00004630,0.00004915,-0.00003355,-0.00001391,0.00002357,0.00009906,0.0
 0016559,-0.00008445,0.00001485,-0.00002091,0.00001079,0.00000538,-0.00
 000958,-0.00000222,-0.31478660,0.02222667,-0.02274561,-0.01192340,-0.0
 0022181,-0.00238305,-0.00945212,0.00021614,0.00065496,0.33909522,0.004
 21149,0.00182306,-0.00400651,-0.00000997,0.00000933,0.00045268,0.00017
 655,-0.00008041,-0.00016772,0.00018022,-0.00003786,-0.00008443,-0.0003
 7689,0.00008682,-0.00006924,0.00000585,-0.00005545,0.00013500,0.039176
 35,-0.02037270,0.01066978,-0.00023122,-0.00023495,0.00033566,-0.000071
 09,-0.00017199,0.00018577,-0.00011233,0.00004040,0.00001088,-0.0017621
 7,-0.00014630,0.00001209,-0.00000750,-0.00005220,-0.00009826,-0.000355
 62,-0.00030371,0.00051370,-0.00000320,0.00008580,-0.00005486,-0.000008
 82,-0.00000151,0.00000693,-0.00000846,-0.00000642,0.00000252,0.0000147
 9,-0.00000283,-0.00009734,-0.00049317,0.00029815,-0.00019117,-0.000021
 36,0.00005235,-0.00005628,0.00003591,0.00001777,-0.00002313,-0.0001506
 5,0.00017270,0.00021969,-0.00002030,0.00000040,-0.00001185,-0.00001422
 ,-0.00002655,0.00000544,0.01438841,-0.04911610,0.00029186,-0.00391589,
 0.00150083,-0.00151882,-0.01927040,0.00369379,-0.00119305,-0.03135631,
 0.06282759,-0.00335397,-0.00024590,0.00153931,0.00002617,0.00012677,-0
 .00018222,-0.00012816,0.00004837,0.00003118,-0.00011555,0.00011714,0.0
 0005870,0.00023246,-0.00010212,-0.00028794,-0.00003421,0.00026317,-0.0
 0002596,-0.00957088,0.00762759,-0.00093308,0.00024099,0.00005855,-0.00
 007325,0.00008698,0.00000402,-0.00005127,0.00006797,-0.00010655,0.0000
 6580,0.00103877,-0.00027457,0.00023796,-0.00020087,-0.00028919,0.00003
 135,-0.00008091,-0.00014230,-0.00015949,0.00002101,-0.00004981,0.00002
 987,0.00000105,-0.00000071,-0.00000268,0.00000172,-0.00001374,0.000000
 44,-0.00001287,0.00001603,0.00001204,0.00012740,-0.00011614,0.00003548
 ,-0.00000385,-0.00001563,0.00001901,-0.00002333,0.00000118,0.00001004,
 0.00049041,0.00024431,0.00003395,-0.00001612,-0.00002811,0.00001014,0.
 00000626,-0.00006015,-0.00001126,-0.02021733,-0.00034346,-0.05441089,0
 .02830937,-0.00249776,0.00434958,-0.02321151,0.00104836,-0.00132096,0.
 02631900,-0.00526935,0.05099415\\0.00010066,0.00000162,-0.00006887,-0.
 00001289,0.00000655,-0.00000197,0.00000500,-0.00001525,-0.00001737,0.0
 0001278,-0.00000281,0.00000150,0.00000495,0.00000608,-0.00001883,0.000
 00250,-0.00000541,0.00001913,-0.00005209,-0.00001288,0.00003871,0.0000
 0071,-0.00000096,-0.00000269,0.00000398,0.00000348,0.00000938,0.000019
 19,0.00001254,0.00000604,-0.00005658,-0.00000849,0.00000754,0.00001758
 ,0.00002042,-0.00000752,-0.00001238,0.00000548,0.00000332,-0.00000861,
 -0.00000111,-0.00000256,0.00000407,0.00000923,0.00000911,-0.00000025,-
 0.00000519,0.00000370,-0.00000100,0.00000779,0.00001359,-0.00002066,-0
 .00001670,0.00000298,-0.00001214,0.00000095,-0.00001656,-0.00000158,0.
 00000764,-0.00000239,-0.00000883,-0.00000231,0.00001510,0.00000902,0.0
 0000770,0.00001255,0.00000287,0.00001053,0.00000946,0.00001549,0.00000
 518,0.00000890,-0.00000550,-0.00001269,-0.00000861,0.00000017,-0.00001
 065,-0.00000940,-0.00000646,-0.00001074,-0.00000426\\\@


 MOM AND DAD WENT TO ALPHA CENTAURI AND ALL
 I GOT WAS THIS DUMB T-SHIRT.
 Job cpu time:  0 days  0 hours  0 minutes 48.2 seconds.
 File lengths (MBytes):  RWF=    972 Int=      0 D2E=      0 Chk=     23 Scr=      8
 Normal termination of Gaussian 09 at Fri Sep 23 18:08:43 2011.
