 Entering Gaussian System, Link 0=g09
 Initial command:
 /projects/nrel/apps/gaussian/g09/B.01/g09/l1.exe /scratch/hmayes/bglc_14b_598/Gau-26815.inp -scrdir=/scratch/hmayes/bglc_14b_598/
 Default is to use a total of   8 processors:
                                8 via shared-memory
                                1 via Linda
 Entering Link 1 = /projects/nrel/apps/gaussian/g09/B.01/g09/l1.exe PID=     26816.
  
 Copyright (c) 1988,1990,1992,1993,1995,1998,2003,2009,2010,
            Gaussian, Inc.  All Rights Reserved.
  
 This is part of the Gaussian(R) 09 program.  It is based on
 the Gaussian(R) 03 system (copyright 2003, Gaussian, Inc.),
 the Gaussian(R) 98 system (copyright 1998, Gaussian, Inc.),
 the Gaussian(R) 94 system (copyright 1995, Gaussian, Inc.),
 the Gaussian 92(TM) system (copyright 1992, Gaussian, Inc.),
 the Gaussian 90(TM) system (copyright 1990, Gaussian, Inc.),
 the Gaussian 88(TM) system (copyright 1988, Gaussian, Inc.),
 the Gaussian 86(TM) system (copyright 1986, Carnegie Mellon
 University), and the Gaussian 82(TM) system (copyright 1983,
 Carnegie Mellon University). Gaussian is a federally registered
 trademark of Gaussian, Inc.
  
 This software contains proprietary and confidential information,
 including trade secrets, belonging to Gaussian, Inc.
  
 This software is provided under written license and may be
 used, copied, transmitted, or stored only in accord with that
 written license.
  
 The following legend is applicable only to US Government
 contracts under FAR:
  
                    RESTRICTED RIGHTS LEGEND
  
 Use, reproduction and disclosure by the US Government is
 subject to restrictions as set forth in subparagraphs (a)
 and (c) of the Commercial Computer Software - Restricted
 Rights clause in FAR 52.227-19.
  
 Gaussian, Inc.
 340 Quinnipiac St., Bldg. 40, Wallingford CT 06492
  
  
 ---------------------------------------------------------------
 Warning -- This program may not be used in any manner that
 competes with the business of Gaussian, Inc. or will provide
 assistance to any competitor of Gaussian, Inc.  The licensee
 of this program is prohibited from giving any competitor of
 Gaussian, Inc. access to this program.  By using this program,
 the user acknowledges that Gaussian, Inc. is engaged in the
 business of creating and licensing software in the field of
 computational chemistry and represents and warrants to the
 licensee that it is not a competitor of Gaussian, Inc. and that
 it will not use this program in any manner prohibited above.
 ---------------------------------------------------------------
  

 Cite this work as:
 Gaussian 09, Revision B.01,
 M. J. Frisch, G. W. Trucks, H. B. Schlegel, G. E. Scuseria, 
 M. A. Robb, J. R. Cheeseman, G. Scalmani, V. Barone, B. Mennucci, 
 G. A. Petersson, H. Nakatsuji, M. Caricato, X. Li, H. P. Hratchian, 
 A. F. Izmaylov, J. Bloino, G. Zheng, J. L. Sonnenberg, M. Hada, 
 M. Ehara, K. Toyota, R. Fukuda, J. Hasegawa, M. Ishida, T. Nakajima, 
 Y. Honda, O. Kitao, H. Nakai, T. Vreven, J. A. Montgomery, Jr., 
 J. E. Peralta, F. Ogliaro, M. Bearpark, J. J. Heyd, E. Brothers, 
 K. N. Kudin, V. N. Staroverov, T. Keith, R. Kobayashi, J. Normand, 
 K. Raghavachari, A. Rendell, J. C. Burant, S. S. Iyengar, J. Tomasi, 
 M. Cossi, N. Rega, J. M. Millam, M. Klene, J. E. Knox, J. B. Cross, 
 V. Bakken, C. Adamo, J. Jaramillo, R. Gomperts, R. E. Stratmann, 
 O. Yazyev, A. J. Austin, R. Cammi, C. Pomelli, J. W. Ochterski, 
 R. L. Martin, K. Morokuma, V. G. Zakrzewski, G. A. Voth, 
 P. Salvador, J. J. Dannenberg, S. Dapprich, A. D. Daniels, 
 O. Farkas, J. B. Foresman, J. V. Ortiz, J. Cioslowski, 
 and D. J. Fox, Gaussian, Inc., Wallingford CT, 2010.
 
 ******************************************
 Gaussian 09:  EM64L-G09RevB.01 12-Aug-2010
                12-Jun-2012 
 ******************************************
 %chk=/home/hmayes/gaussian/bglucose/bglc_14b_598.chk
 %mem=10GB
 %nproc=8
 Will use up to    8 processors via shared memory.
 Default route:  MaxDisk=16GB
 -----------------------------------------
 # opt(modredundant) m062x/6-31G(d) nosymm
 -----------------------------------------
 1/14=-1,18=120,19=15,26=3,38=1/1,3;
 2/9=110,12=2,15=1,17=6,18=5,40=1/2;
 3/5=1,6=6,7=1,11=2,16=1,25=1,30=1,71=1,74=-55/1,2,3;
 4//1;
 5/5=2,38=5/2;
 6/7=2,8=2,9=2,10=2,28=1/1;
 7/30=1/1,2,3,16;
 1/14=-1,18=20,19=15/3(2);
 2/9=110,15=1/2;
 99//99;
 2/9=110,15=1/2;
 3/5=1,6=6,7=1,11=2,16=1,25=1,30=1,71=1,74=-55/1,2,3;
 4/5=5,16=3/1;
 5/5=2,38=5/2;
 7/30=1/1,2,3,16;
 1/14=-1,18=20,19=15/3(-5);
 2/9=110,15=1/2;
 6/7=2,8=2,9=2,10=2,19=2,28=1/1;
 99/9=1/99;
 ---------------------------------------------
 Starting Geometry for Conformational Analysis
 ---------------------------------------------
 Symbolic Z-matrix:
 Charge =  0 Multiplicity = 1
 C                     21.07611  -1.25604  -32.7198 
 H                     21.19616  -1.79856  -33.66325 
 O                     20.76272   0.06684  -33.03952 
 H                     21.40467   0.66549  -32.63128 
 C                     19.72539  -1.58721  -30.70182 
 H                     19.92065  -2.43725  -30.0388 
 O                     20.0587  -2.01407  -32.07441 
 C                     22.34973  -1.47031  -31.89398 
 H                     23.17172  -0.87417  -32.32504 
 O                     22.61979  -2.84822  -31.95995 
 H                     22.66195  -3.10899  -32.88997 
 C                     22.07177  -0.96245  -30.45735 
 H                     22.16304  -1.79358  -29.7447 
 O                     22.9018   0.13455  -30.08955 
 H                     22.94357   0.76771  -30.81913 
 C                     20.64629  -0.43026  -30.35649 
 H                     20.46151   0.43645  -30.98503 
 O                     20.38131  -0.08897  -29.00532 
 H                     21.10187   0.5012   -28.73451 
 C                     18.25088  -1.23284  -30.69956 
 H                     18.0794  -0.34738  -31.31692 
 H                     17.68926  -2.07638  -31.13131 
 O                     17.82348  -0.93799  -29.39187 
 H                     18.26067  -0.10311  -29.16014 
 
 The following ModRedundant input section has been read:
 D       7       5      16      12 F                                           
 D       8      12      16       5 F                                           
 D       1       8      12      16 F                                           
 D       7       1       8      12 F                                           

 GradGradGradGradGradGradGradGradGradGradGradGradGradGradGradGradGradGrad
 Berny optimization.
 Initialization pass.
                           ----------------------------
                           !    Initial Parameters    !
                           ! (Angstroms and Degrees)  !
 --------------------------                            --------------------------
 ! Name  Definition              Value          Derivative Info.                !
 --------------------------------------------------------------------------------
 ! R1    R(1,2)                  1.0949         estimate D2E/DX2                !
 ! R2    R(1,3)                  1.3966         estimate D2E/DX2                !
 ! R3    R(1,7)                  1.4235         estimate D2E/DX2                !
 ! R4    R(1,8)                  1.533          estimate D2E/DX2                !
 ! R5    R(3,4)                  0.9681         estimate D2E/DX2                !
 ! R6    R(5,6)                  1.0956         estimate D2E/DX2                !
 ! R7    R(5,7)                  1.4756         estimate D2E/DX2                !
 ! R8    R(5,16)                 1.5185         estimate D2E/DX2                !
 ! R9    R(5,20)                 1.5165         estimate D2E/DX2                !
 ! R10   R(8,9)                  1.1031         estimate D2E/DX2                !
 ! R11   R(8,10)                 1.4057         estimate D2E/DX2                !
 ! R12   R(8,12)                 1.5489         estimate D2E/DX2                !
 ! R13   R(10,11)                0.9668         estimate D2E/DX2                !
 ! R14   R(12,13)                1.0986         estimate D2E/DX2                !
 ! R15   R(12,14)                1.4239         estimate D2E/DX2                !
 ! R16   R(12,16)                1.5249         estimate D2E/DX2                !
 ! R17   R(14,15)                0.9669         estimate D2E/DX2                !
 ! R18   R(16,17)                1.0865         estimate D2E/DX2                !
 ! R19   R(16,18)                1.4186         estimate D2E/DX2                !
 ! R20   R(18,19)                0.97           estimate D2E/DX2                !
 ! R21   R(20,21)                1.093          estimate D2E/DX2                !
 ! R22   R(20,22)                1.1015         estimate D2E/DX2                !
 ! R23   R(20,23)                1.407          estimate D2E/DX2                !
 ! R24   R(23,24)                0.9705         estimate D2E/DX2                !
 ! A1    A(2,1,3)              107.2587         estimate D2E/DX2                !
 ! A2    A(2,1,7)              101.8395         estimate D2E/DX2                !
 ! A3    A(2,1,8)              107.6879         estimate D2E/DX2                !
 ! A4    A(3,1,7)              116.6047         estimate D2E/DX2                !
 ! A5    A(3,1,8)              116.2419         estimate D2E/DX2                !
 ! A6    A(7,1,8)              105.9703         estimate D2E/DX2                !
 ! A7    A(1,3,4)              109.9021         estimate D2E/DX2                !
 ! A8    A(6,5,7)              107.3516         estimate D2E/DX2                !
 ! A9    A(6,5,16)             110.2084         estimate D2E/DX2                !
 ! A10   A(6,5,20)             110.7133         estimate D2E/DX2                !
 ! A11   A(7,5,16)             107.1555         estimate D2E/DX2                !
 ! A12   A(7,5,20)             106.7751         estimate D2E/DX2                !
 ! A13   A(16,5,20)            114.2855         estimate D2E/DX2                !
 ! A14   A(1,7,5)              115.4133         estimate D2E/DX2                !
 ! A15   A(1,8,9)              109.4536         estimate D2E/DX2                !
 ! A16   A(1,8,10)             105.7446         estimate D2E/DX2                !
 ! A17   A(1,8,12)             107.7426         estimate D2E/DX2                !
 ! A18   A(9,8,10)             111.6064         estimate D2E/DX2                !
 ! A19   A(9,8,12)             108.6011         estimate D2E/DX2                !
 ! A20   A(10,8,12)            113.5416         estimate D2E/DX2                !
 ! A21   A(8,10,11)            108.5375         estimate D2E/DX2                !
 ! A22   A(8,12,13)            109.7975         estimate D2E/DX2                !
 ! A23   A(8,12,14)            112.8034         estimate D2E/DX2                !
 ! A24   A(8,12,16)            110.0916         estimate D2E/DX2                !
 ! A25   A(13,12,14)           111.5212         estimate D2E/DX2                !
 ! A26   A(13,12,16)           107.3836         estimate D2E/DX2                !
 ! A27   A(14,12,16)           105.008          estimate D2E/DX2                !
 ! A28   A(12,14,15)           109.5574         estimate D2E/DX2                !
 ! A29   A(5,16,12)            106.6166         estimate D2E/DX2                !
 ! A30   A(5,16,17)            111.9067         estimate D2E/DX2                !
 ! A31   A(5,16,18)            106.6568         estimate D2E/DX2                !
 ! A32   A(12,16,17)           113.5236         estimate D2E/DX2                !
 ! A33   A(12,16,18)           108.7579         estimate D2E/DX2                !
 ! A34   A(17,16,18)           109.1068         estimate D2E/DX2                !
 ! A35   A(16,18,19)           105.8755         estimate D2E/DX2                !
 ! A36   A(5,20,21)            109.9388         estimate D2E/DX2                !
 ! A37   A(5,20,22)            108.4336         estimate D2E/DX2                !
 ! A38   A(5,20,23)            110.2251         estimate D2E/DX2                !
 ! A39   A(21,20,22)           108.6035         estimate D2E/DX2                !
 ! A40   A(21,20,23)           107.9108         estimate D2E/DX2                !
 ! A41   A(22,20,23)           111.7089         estimate D2E/DX2                !
 ! A42   A(20,23,24)           105.3883         estimate D2E/DX2                !
 ! D1    D(2,1,3,4)           -123.5369         estimate D2E/DX2                !
 ! D2    D(7,1,3,4)            123.1415         estimate D2E/DX2                !
 ! D3    D(8,1,3,4)             -3.0149         estimate D2E/DX2                !
 ! D4    D(2,1,7,5)            175.746          estimate D2E/DX2                !
 ! D5    D(3,1,7,5)            -67.8928         estimate D2E/DX2                !
 ! D6    D(8,1,7,5)             63.2331         estimate D2E/DX2                !
 ! D7    D(2,1,8,9)             73.7198         estimate D2E/DX2                !
 ! D8    D(2,1,8,10)           -46.6331         estimate D2E/DX2                !
 ! D9    D(2,1,8,12)          -168.363          estimate D2E/DX2                !
 ! D10   D(3,1,8,9)            -46.5719         estimate D2E/DX2                !
 ! D11   D(3,1,8,10)          -166.9249         estimate D2E/DX2                !
 ! D12   D(3,1,8,12)            71.3453         estimate D2E/DX2                !
 ! D13   D(7,1,8,9)           -177.9035         estimate D2E/DX2                !
 ! D14   D(7,1,8,10)            61.7436         estimate D2E/DX2                !
 ! D15   D(7,1,8,12)           -59.9863         Frozen                          !
 ! D16   D(6,5,7,1)           -120.0863         estimate D2E/DX2                !
 ! D17   D(16,5,7,1)            -1.7132         estimate D2E/DX2                !
 ! D18   D(20,5,7,1)           121.149          estimate D2E/DX2                !
 ! D19   D(6,5,16,12)           56.5149         estimate D2E/DX2                !
 ! D20   D(6,5,16,17)         -178.8084         estimate D2E/DX2                !
 ! D21   D(6,5,16,18)          -59.5615         estimate D2E/DX2                !
 ! D22   D(7,5,16,12)          -59.9869         Frozen                          !
 ! D23   D(7,5,16,17)           64.6898         estimate D2E/DX2                !
 ! D24   D(7,5,16,18)         -176.0633         estimate D2E/DX2                !
 ! D25   D(20,5,16,12)        -178.0646         estimate D2E/DX2                !
 ! D26   D(20,5,16,17)         -53.388          estimate D2E/DX2                !
 ! D27   D(20,5,16,18)          65.859          estimate D2E/DX2                !
 ! D28   D(6,5,20,21)          176.6121         estimate D2E/DX2                !
 ! D29   D(6,5,20,22)          -64.7923         estimate D2E/DX2                !
 ! D30   D(6,5,20,23)           57.7767         estimate D2E/DX2                !
 ! D31   D(7,5,20,21)          -66.8364         estimate D2E/DX2                !
 ! D32   D(7,5,20,22)           51.7592         estimate D2E/DX2                !
 ! D33   D(7,5,20,23)          174.3283         estimate D2E/DX2                !
 ! D34   D(16,5,20,21)          51.4579         estimate D2E/DX2                !
 ! D35   D(16,5,20,22)         170.0535         estimate D2E/DX2                !
 ! D36   D(16,5,20,23)         -67.3775         estimate D2E/DX2                !
 ! D37   D(1,8,10,11)           54.4511         estimate D2E/DX2                !
 ! D38   D(9,8,10,11)          -64.4852         estimate D2E/DX2                !
 ! D39   D(12,8,10,11)         172.3682         estimate D2E/DX2                !
 ! D40   D(1,8,12,13)          118.0198         estimate D2E/DX2                !
 ! D41   D(1,8,12,14)         -116.9301         estimate D2E/DX2                !
 ! D42   D(1,8,12,16)           -0.0004         Frozen                          !
 ! D43   D(9,8,12,13)         -123.5144         estimate D2E/DX2                !
 ! D44   D(9,8,12,14)            1.5357         estimate D2E/DX2                !
 ! D45   D(9,8,12,16)          118.4654         estimate D2E/DX2                !
 ! D46   D(10,8,12,13)           1.2655         estimate D2E/DX2                !
 ! D47   D(10,8,12,14)         126.3156         estimate D2E/DX2                !
 ! D48   D(10,8,12,16)        -116.7547         estimate D2E/DX2                !
 ! D49   D(8,12,14,15)          44.2102         estimate D2E/DX2                !
 ! D50   D(13,12,14,15)        168.3173         estimate D2E/DX2                !
 ! D51   D(16,12,14,15)        -75.6922         estimate D2E/DX2                !
 ! D52   D(8,12,16,5)           59.9857         Frozen                          !
 ! D53   D(8,12,16,17)         -63.6942         estimate D2E/DX2                !
 ! D54   D(8,12,16,18)         174.6473         estimate D2E/DX2                !
 ! D55   D(13,12,16,5)         -59.514          estimate D2E/DX2                !
 ! D56   D(13,12,16,17)        176.8062         estimate D2E/DX2                !
 ! D57   D(13,12,16,18)         55.1477         estimate D2E/DX2                !
 ! D58   D(14,12,16,5)        -178.3243         estimate D2E/DX2                !
 ! D59   D(14,12,16,17)         57.9959         estimate D2E/DX2                !
 ! D60   D(14,12,16,18)        -63.6627         estimate D2E/DX2                !
 ! D61   D(5,16,18,19)         167.3614         estimate D2E/DX2                !
 ! D62   D(12,16,18,19)         52.726          estimate D2E/DX2                !
 ! D63   D(17,16,18,19)        -71.5885         estimate D2E/DX2                !
 ! D64   D(5,20,23,24)          68.7177         estimate D2E/DX2                !
 ! D65   D(21,20,23,24)        -51.3492         estimate D2E/DX2                !
 ! D66   D(22,20,23,24)       -170.6592         estimate D2E/DX2                !
 --------------------------------------------------------------------------------
 Trust Radius=3.00D-01 FncErr=1.00D-07 GrdErr=1.00D-06
 Number of steps in this run=    142 maximum allowed number of steps=    144.
 GradGradGradGradGradGradGradGradGradGradGradGradGradGradGradGradGradGrad

                          Input orientation:                          
 ---------------------------------------------------------------------
 Center     Atomic      Atomic             Coordinates (Angstroms)
 Number     Number       Type             X           Y           Z
 ---------------------------------------------------------------------
      1          6           0       21.076111   -1.256035  -32.719799
      2          1           0       21.196163   -1.798564  -33.663250
      3          8           0       20.762719    0.066843  -33.039525
      4          1           0       21.404667    0.665494  -32.631277
      5          6           0       19.725394   -1.587213  -30.701824
      6          1           0       19.920653   -2.437251  -30.038805
      7          8           0       20.058702   -2.014071  -32.074413
      8          6           0       22.349726   -1.470305  -31.893976
      9          1           0       23.171724   -0.874174  -32.325042
     10          8           0       22.619791   -2.848218  -31.959949
     11          1           0       22.661948   -3.108993  -32.889965
     12          6           0       22.071774   -0.962448  -30.457346
     13          1           0       22.163035   -1.793579  -29.744702
     14          8           0       22.901801    0.134546  -30.089545
     15          1           0       22.943567    0.767705  -30.819127
     16          6           0       20.646287   -0.430264  -30.356490
     17          1           0       20.461507    0.436454  -30.985027
     18          8           0       20.381309   -0.088969  -29.005317
     19          1           0       21.101875    0.501202  -28.734508
     20          6           0       18.250876   -1.232844  -30.699563
     21          1           0       18.079398   -0.347376  -31.316920
     22          1           0       17.689260   -2.076380  -31.131308
     23          8           0       17.823477   -0.937985  -29.391868
     24          1           0       18.260668   -0.103114  -29.160140
 ---------------------------------------------------------------------
                    Distance matrix (angstroms):
                    1          2          3          4          5
     1  C    0.000000
     2  H    1.094920   0.000000
     3  O    1.396583   2.014113   0.000000
     4  H    1.951425   2.679557   0.968063   0.000000
     5  C    2.450783   3.313288   3.045782   3.408436   0.000000
     6  H    3.149299   3.895054   3.997985   4.306998   1.095575
     7  O    1.423469   1.965875   2.399434   3.049883   1.475569
     8  C    1.532968   2.137473   2.488714   2.449160   2.884790
     9  H    2.166390   2.558933   2.683152   2.363651   3.875623
    10  O    2.344220   2.455550   3.621019   3.778013   3.398609
    11  H    2.444849   2.112752   3.703427   3.986782   3.965744
    12  C    2.489223   3.426894   3.072574   2.796641   2.440410
    13  H    3.212718   4.036073   4.034590   3.867102   2.626930
    14  O    3.490716   4.406527   3.644535   2.997285   3.664547
    15  H    3.345963   4.210486   3.190215   2.379611   3.989491
    16  C    2.540054   3.620673   2.731181   2.636377   1.518496
    17  H    2.500338   3.564815   2.109100   1.911060   2.171933
    18  O    3.955018   5.028225   4.055192   3.842403   2.356501
    19  H    4.355581   5.439698   4.340146   3.911967   3.182218
    20  C    3.473304   4.216420   3.670690   4.157115   1.516504
    21  H    3.431329   4.162383   3.215456   3.716296   2.150545
    22  H    3.829756   4.334314   4.204860   4.855103   2.137658
    23  O    4.664323   5.510019   4.791057   5.088206   2.398910
    24  H    4.682640   5.636460   4.619391   4.745975   2.593215
                    6          7          8          9         10
     6  H    0.000000
     7  O    2.083708   0.000000
     8  C    3.205782   2.361574   0.000000
     9  H    4.270779   3.324618   1.103119   0.000000
    10  O    3.338418   2.695938   1.405678   2.082012   0.000000
    11  H    4.011864   2.939536   1.942878   2.360810   0.966804
    12  C    2.641504   2.788059   1.548897   2.169325   2.472704
    13  H    2.351401   3.147124   2.181453   2.919060   2.495638
    14  O    3.937507   4.079150   2.477157   2.467351   3.531971
    15  H    4.474221   4.199579   2.552770   2.239554   3.805418
    16  C    2.157653   2.409348   2.519375   3.232659   3.508889
    17  H    3.073441   2.711842   2.833247   3.295248   4.049411
    18  O    2.606670   3.637230   3.758604   4.407214   4.621050
    19  H    3.425052   4.309266   3.927621   4.366677   4.891437
    20  C    2.162256   2.401825   4.275930   5.194764   4.825497
    21  H    3.064535   2.696166   4.453051   5.217817   5.223300
    22  H    2.510559   2.550997   4.761190   5.738267   5.058905
    23  O    2.657908   3.653798   5.199119   6.100109   5.766165
    24  H    2.995964   3.921437   5.105239   5.893183   5.863146
                   11         12         13         14         15
    11  H    0.000000
    12  C    3.297514   0.000000
    13  H    3.445563   1.098621   0.000000
    14  O    4.291902   1.423945   2.093408   0.000000
    15  H    4.404142   1.970872   2.885099   0.966915   0.000000
    16  C    4.202020   1.524928   2.129187   2.340430   2.631855
    17  H    4.587039   2.197347   3.067026   2.616882   2.509556
    18  O    5.423315   2.393538   2.574283   2.752887   3.254069
    19  H    5.721465   2.459908   2.722604   2.282607   2.794367
    20  C    5.270233   3.838104   4.065854   4.885998   5.102729
    21  H    5.576806   4.129921   4.608629   4.999427   5.015112
    22  H    5.374643   4.571816   4.692261   5.757087   5.982810
    23  O    6.353012   4.379939   4.437150   5.237027   5.582273
    24  H    6.505242   4.116519   4.292768   4.739240   5.043819
                   16         17         18         19         20
    16  C    0.000000
    17  H    1.086463   0.000000
    18  O    1.418578   2.049818   0.000000
    19  H    1.925101   2.340748   0.969977   0.000000
    20  C    2.549476   2.784768   2.952569   3.872538   0.000000
    21  H    2.741936   2.529622   3.272473   4.065010   1.092972
    22  H    3.471894   3.744474   3.964438   4.902501   1.101530
    23  O    3.025976   3.374380   2.722637   3.640230   1.407010
    24  H    2.688765   2.909474   2.126332   2.935782   1.909505
                   21         22         23         24
    21  H    0.000000
    22  H    1.782166   0.000000
    23  O    2.029813   2.083173   0.000000
    24  H    2.178124   2.847067   0.970486   0.000000
 Symmetry turned off by external request.
 Stoichiometry    C6H12O6
 Framework group  C1[X(C6H12O6)]
 Deg. of freedom    66
 Full point group                 C1      NOp   1
 Rotational constants (GHZ):      1.2875062      0.7898004      0.6350696
 Standard basis: 6-31G(d) (6D, 7F)
 Integral buffers will be    131072 words long.
 Raffenetti 2 integral format.
 Two-electron integral symmetry is turned off.
   204 basis functions,   384 primitive gaussians,   204 cartesian basis functions
    48 alpha electrons       48 beta electrons
       nuclear repulsion energy       849.7282655406 Hartrees.
 NAtoms=   24 NActive=   24 NUniq=   24 SFac= 1.00D+00 NAtFMM=   50 NAOKFM=F Big=F
 One-electron integrals computed using PRISM.
 NBasis=   204 RedAO= T  NBF=   204
 NBsUse=   204 1.00D-06 NBFU=   204
 Harris functional with IExCor= 1009 diagonalized for initial guess.
 ExpMin= 1.61D-01 ExpMax= 5.48D+03 ExpMxC= 8.25D+02 IAcc=1 IRadAn=         1 AccDes= 0.00D+00
 HarFok:  IExCor= 1009 AccDes= 0.00D+00 IRadAn=         1 IDoV= 1
 ScaDFX=  1.000000  1.000000  1.000000  1.000000
 FoFCou: FMM=F IPFlag=           0 FMFlag=      100000 FMFlg1=           0
         NFxFlg=           0 DoJE=T BraDBF=F KetDBF=T FulRan=T
         Omega=  0.000000  0.000000  1.000000  0.000000  0.000000 ICntrl=     500 IOpCl=  0
         NMat0=    1 NMatS0=    1 NMatT0=    0 NMatD0=    1 NMtDS0=    0 NMtDT0=    0
         I1Cent=           4 NGrid=           0.
 Symmetry not used in FoFCou.
 Requested convergence on RMS density matrix=1.00D-08 within 128 cycles.
 Requested convergence on MAX density matrix=1.00D-06.
 Requested convergence on             energy=1.00D-06.
 No special actions if energy rises.
 Keep R1 ints in memory in canonical form, NReq=223279141.
 Integral accuracy reduced to 1.0D-05 until final iterations.
 Initial convergence to 1.0D-05 achieved.  Increase integral accuracy.
 SCF Done:  E(RM062X) =  -686.840313320     A.U. after   14 cycles
             Convg  =    0.5740D-08             -V/T =  2.0077

 **********************************************************************

            Population analysis using the SCF density.

 **********************************************************************

 Alpha  occ. eigenvalues --  -19.67368 -19.67158 -19.65708 -19.65118 -19.65018
 Alpha  occ. eigenvalues --  -19.61566 -10.66089 -10.62387 -10.62091 -10.60596
 Alpha  occ. eigenvalues --  -10.59779 -10.58030  -1.20991  -1.18321  -1.16560
 Alpha  occ. eigenvalues --   -1.15395  -1.13357  -1.12293  -0.89678  -0.87109
 Alpha  occ. eigenvalues --   -0.78113  -0.75558  -0.72261  -0.67894  -0.63577
 Alpha  occ. eigenvalues --   -0.62877  -0.61902  -0.58752  -0.58382  -0.55901
 Alpha  occ. eigenvalues --   -0.54733  -0.53413  -0.51122  -0.50149  -0.49397
 Alpha  occ. eigenvalues --   -0.47940  -0.47658  -0.45548  -0.44655  -0.42134
 Alpha  occ. eigenvalues --   -0.41003  -0.39482  -0.39060  -0.37126  -0.35783
 Alpha  occ. eigenvalues --   -0.35091  -0.34394  -0.31443
 Alpha virt. eigenvalues --    0.03815   0.10040   0.11009   0.13393   0.14059
 Alpha virt. eigenvalues --    0.16240   0.16627   0.18392   0.18822   0.19940
 Alpha virt. eigenvalues --    0.21506   0.22022   0.23203   0.24356   0.25118
 Alpha virt. eigenvalues --    0.27274   0.28245   0.29503   0.31770   0.33598
 Alpha virt. eigenvalues --    0.33843   0.35580   0.36011   0.39453   0.57041
 Alpha virt. eigenvalues --    0.58307   0.59384   0.60329   0.61345   0.63351
 Alpha virt. eigenvalues --    0.65018   0.66722   0.67418   0.68370   0.71618
 Alpha virt. eigenvalues --    0.73179   0.75274   0.78320   0.80021   0.82724
 Alpha virt. eigenvalues --    0.83723   0.85644   0.86180   0.87362   0.88428
 Alpha virt. eigenvalues --    0.89720   0.90713   0.91558   0.92037   0.92865
 Alpha virt. eigenvalues --    0.94436   0.96141   0.97192   0.99694   1.01284
 Alpha virt. eigenvalues --    1.01747   1.02928   1.04236   1.06013   1.07270
 Alpha virt. eigenvalues --    1.09663   1.12198   1.13458   1.14079   1.15714
 Alpha virt. eigenvalues --    1.19404   1.19724   1.22366   1.23534   1.27926
 Alpha virt. eigenvalues --    1.28103   1.30218   1.33718   1.36631   1.38700
 Alpha virt. eigenvalues --    1.41549   1.44074   1.48146   1.48708   1.51300
 Alpha virt. eigenvalues --    1.55532   1.57809   1.64163   1.66237   1.67370
 Alpha virt. eigenvalues --    1.69738   1.71134   1.72082   1.73055   1.75660
 Alpha virt. eigenvalues --    1.78977   1.79265   1.82159   1.84539   1.86003
 Alpha virt. eigenvalues --    1.87472   1.89464   1.91522   1.92446   1.94503
 Alpha virt. eigenvalues --    1.95354   1.98212   1.99897   2.02860   2.03847
 Alpha virt. eigenvalues --    2.06882   2.09627   2.11479   2.14741   2.15899
 Alpha virt. eigenvalues --    2.17031   2.19490   2.21679   2.25567   2.29236
 Alpha virt. eigenvalues --    2.29899   2.33003   2.34183   2.39654   2.42460
 Alpha virt. eigenvalues --    2.44042   2.44262   2.48902   2.51055   2.53257
 Alpha virt. eigenvalues --    2.54162   2.55194   2.57063   2.58111   2.61646
 Alpha virt. eigenvalues --    2.63574   2.65772   2.70714   2.73189   2.78345
 Alpha virt. eigenvalues --    2.83739   2.86923   2.89070   2.92501   2.93530
 Alpha virt. eigenvalues --    2.96924   3.02980   3.10563   3.13424   3.77201
 Alpha virt. eigenvalues --    3.80441   3.86027   3.95681   4.07028   4.11278
 Alpha virt. eigenvalues --    4.32030   4.39703   4.50886   4.63232   4.66194
 Alpha virt. eigenvalues --    4.87062
          Condensed to atoms (all electrons):
              1          2          3          4          5          6
     1  C    4.741059   0.409381   0.194054  -0.037610  -0.040670   0.001676
     2  H    0.409381   0.576208  -0.043477   0.004681   0.005267  -0.000221
     3  O    0.194054  -0.043477   8.328604   0.238287   0.004431  -0.000273
     4  H   -0.037610   0.004681   0.238287   0.378935   0.000281   0.000050
     5  C   -0.040670   0.005267   0.004431   0.000281   5.025794   0.381495
     6  H    0.001676  -0.000221  -0.000273   0.000050   0.381495   0.551179
     7  O    0.235598  -0.055773  -0.047967   0.003797   0.163673  -0.031676
     8  C    0.313210  -0.056211  -0.041773  -0.005354  -0.015683   0.000754
     9  H   -0.055673  -0.003033   0.003667   0.003203   0.000570  -0.000031
    10  O   -0.045288  -0.003419   0.002216   0.000226   0.002832   0.000862
    11  H   -0.002062   0.008941   0.000086   0.000029   0.000066  -0.000043
    12  C   -0.031170   0.005807   0.001639   0.001051  -0.045666  -0.008968
    13  H    0.002477  -0.000219  -0.000081   0.000082  -0.005861   0.006246
    14  O    0.001668  -0.000080  -0.000354   0.001032   0.004737   0.000066
    15  H   -0.000670  -0.000025   0.000557   0.004239   0.000059   0.000014
    16  C    0.000339   0.000145  -0.020838   0.002154   0.306996  -0.051041
    17  H    0.000640   0.000386   0.011145   0.002250  -0.037987   0.005079
    18  O   -0.000131   0.000006   0.000295  -0.000111  -0.044997   0.002067
    19  H   -0.000033   0.000000   0.000005  -0.000037   0.007489  -0.000136
    20  C    0.000393  -0.000143  -0.000003  -0.000045   0.319063  -0.047539
    21  H    0.000952   0.000001   0.000831  -0.000056  -0.046664   0.005966
    22  H   -0.000064  -0.000003   0.000021  -0.000004  -0.044492  -0.004903
    23  O   -0.000008   0.000001   0.000001   0.000000  -0.050957   0.006184
    24  H    0.000037   0.000000  -0.000003   0.000001  -0.008959  -0.000641
              7          8          9         10         11         12
     1  C    0.235598   0.313210  -0.055673  -0.045288  -0.002062  -0.031170
     2  H   -0.055773  -0.056211  -0.003033  -0.003419   0.008941   0.005807
     3  O   -0.047967  -0.041773   0.003667   0.002216   0.000086   0.001639
     4  H    0.003797  -0.005354   0.003203   0.000226   0.000029   0.001051
     5  C    0.163673  -0.015683   0.000570   0.002832   0.000066  -0.045666
     6  H   -0.031676   0.000754  -0.000031   0.000862  -0.000043  -0.008968
     7  O    8.390018  -0.049728   0.004331  -0.003845   0.000300  -0.011917
     8  C   -0.049728   5.118618   0.363001   0.196952  -0.027118   0.256785
     9  H    0.004331   0.363001   0.627858  -0.027507  -0.003391  -0.060136
    10  O   -0.003845   0.196952  -0.027507   8.295355   0.245389  -0.030709
    11  H    0.000300  -0.027118  -0.003391   0.245389   0.351153   0.005452
    12  C   -0.011917   0.256785  -0.060136  -0.030709   0.005452   5.040948
    13  H    0.000006  -0.034364   0.001432   0.001639  -0.000136   0.374081
    14  O    0.000053  -0.031859   0.000633   0.001051  -0.000104   0.208458
    15  H    0.000057  -0.004593   0.005425   0.000044   0.000001  -0.031211
    16  C   -0.032222  -0.057587   0.004914   0.001044  -0.000270   0.348649
    17  H   -0.001685  -0.000675  -0.000655  -0.000126   0.000012  -0.042645
    18  O    0.001314   0.004280  -0.000078  -0.000013   0.000002  -0.036844
    19  H   -0.000101   0.000648  -0.000036  -0.000005   0.000000  -0.013711
    20  C   -0.037548  -0.000100   0.000020   0.000018  -0.000002   0.004632
    21  H    0.004145   0.000082  -0.000002   0.000000   0.000000   0.000047
    22  H    0.003070   0.000011  -0.000001  -0.000001   0.000000  -0.000148
    23  O    0.001685   0.000001   0.000000   0.000000   0.000000   0.000009
    24  H   -0.000067  -0.000024   0.000000   0.000000   0.000000   0.000260
             13         14         15         16         17         18
     1  C    0.002477   0.001668  -0.000670   0.000339   0.000640  -0.000131
     2  H   -0.000219  -0.000080  -0.000025   0.000145   0.000386   0.000006
     3  O   -0.000081  -0.000354   0.000557  -0.020838   0.011145   0.000295
     4  H    0.000082   0.001032   0.004239   0.002154   0.002250  -0.000111
     5  C   -0.005861   0.004737   0.000059   0.306996  -0.037987  -0.044997
     6  H    0.006246   0.000066   0.000014  -0.051041   0.005079   0.002067
     7  O    0.000006   0.000053   0.000057  -0.032222  -0.001685   0.001314
     8  C   -0.034364  -0.031859  -0.004593  -0.057587  -0.000675   0.004280
     9  H    0.001432   0.000633   0.005425   0.004914  -0.000655  -0.000078
    10  O    0.001639   0.001051   0.000044   0.001044  -0.000126  -0.000013
    11  H   -0.000136  -0.000104   0.000001  -0.000270   0.000012   0.000002
    12  C    0.374081   0.208458  -0.031211   0.348649  -0.042645  -0.036844
    13  H    0.494501  -0.027830   0.005244  -0.039271   0.005031   0.000733
    14  O   -0.027830   8.314960   0.240613  -0.063770  -0.002916  -0.008268
    15  H    0.005244   0.240613   0.375902  -0.000731   0.003218   0.000064
    16  C   -0.039271  -0.063770  -0.000731   5.071386   0.354979   0.180943
    17  H    0.005031  -0.002916   0.003218   0.354979   0.597899  -0.034905
    18  O    0.000733  -0.008268   0.000064   0.180943  -0.034905   8.364866
    19  H   -0.000614   0.023314  -0.000718  -0.027482  -0.001303   0.238949
    20  C   -0.000181  -0.000089   0.000002  -0.026584  -0.006946   0.000205
    21  H    0.000000   0.000000  -0.000002  -0.014365   0.004894   0.000232
    22  H    0.000003   0.000001   0.000000   0.005352  -0.000040  -0.000138
    23  O   -0.000018   0.000000   0.000000  -0.000544   0.000308  -0.009408
    24  H    0.000010   0.000002   0.000000   0.003891  -0.000328   0.019178
             19         20         21         22         23         24
     1  C   -0.000033   0.000393   0.000952  -0.000064  -0.000008   0.000037
     2  H    0.000000  -0.000143   0.000001  -0.000003   0.000001   0.000000
     3  O    0.000005  -0.000003   0.000831   0.000021   0.000001  -0.000003
     4  H   -0.000037  -0.000045  -0.000056  -0.000004   0.000000   0.000001
     5  C    0.007489   0.319063  -0.046664  -0.044492  -0.050957  -0.008959
     6  H   -0.000136  -0.047539   0.005966  -0.004903   0.006184  -0.000641
     7  O   -0.000101  -0.037548   0.004145   0.003070   0.001685  -0.000067
     8  C    0.000648  -0.000100   0.000082   0.000011   0.000001  -0.000024
     9  H   -0.000036   0.000020  -0.000002  -0.000001   0.000000   0.000000
    10  O   -0.000005   0.000018   0.000000  -0.000001   0.000000   0.000000
    11  H    0.000000  -0.000002   0.000000   0.000000   0.000000   0.000000
    12  C   -0.013711   0.004632   0.000047  -0.000148   0.000009   0.000260
    13  H   -0.000614  -0.000181   0.000000   0.000003  -0.000018   0.000010
    14  O    0.023314  -0.000089   0.000000   0.000001   0.000000   0.000002
    15  H   -0.000718   0.000002  -0.000002   0.000000   0.000000   0.000000
    16  C   -0.027482  -0.026584  -0.014365   0.005352  -0.000544   0.003891
    17  H   -0.001303  -0.006946   0.004894  -0.000040   0.000308  -0.000328
    18  O    0.238949   0.000205   0.000232  -0.000138  -0.009408   0.019178
    19  H    0.346384  -0.000303  -0.000015   0.000016   0.000530  -0.000310
    20  C   -0.000303   4.892072   0.373338   0.385399   0.230517  -0.022819
    21  H   -0.000015   0.373338   0.610919  -0.035552  -0.037881  -0.008262
    22  H    0.000016   0.385399  -0.035552   0.540038  -0.030452   0.005143
    23  O    0.000530   0.230517  -0.037881  -0.030452   8.296970   0.242470
    24  H   -0.000310  -0.022819  -0.008262   0.005143   0.242470   0.341106
 Mulliken atomic charges:
              1
     1  C    0.311895
     2  H    0.151781
     3  O   -0.631071
     4  H    0.402920
     5  C    0.119181
     6  H    0.183832
     7  O   -0.535517
     8  C    0.070728
     9  H    0.135489
    10  O   -0.636713
    11  H    0.421696
    12  C    0.065307
    13  H    0.217091
    14  O   -0.661321
    15  H    0.402511
    16  C    0.053913
    17  H    0.144370
    18  O   -0.678239
    19  H    0.427466
    20  C   -0.063358
    21  H    0.141391
    22  H    0.176742
    23  O   -0.649409
    24  H    0.429314
 Sum of Mulliken atomic charges =   0.00000
 Mulliken charges with hydrogens summed into heavy atoms:
              1
     1  C    0.463676
     3  O   -0.228151
     5  C    0.303013
     7  O   -0.535517
     8  C    0.206217
    10  O   -0.215016
    12  C    0.282398
    14  O   -0.258810
    16  C    0.198283
    18  O   -0.250773
    20  C    0.254775
    23  O   -0.220095
 Sum of Mulliken charges with hydrogens summed into heavy atoms =   0.00000
 Electronic spatial extent (au):  <R**2>=         479502.0697
 Charge=              0.0000 electrons
 Dipole moment (field-independent basis, Debye):
    X=              3.5940    Y=              2.8410    Z=             -2.5865  Tot=              5.2610
 Quadrupole moment (field-independent basis, Debye-Ang):
   XX=             70.4047   YY=            -70.4569   ZZ=             87.4629
   XY=             57.0303   XZ=           -168.0485   YZ=            -81.6081
 Traceless Quadrupole moment (field-independent basis, Debye-Ang):
   XX=             41.2678   YY=            -99.5938   ZZ=             58.3260
   XY=             57.0303   XZ=           -168.0485   YZ=            -81.6081
 Octapole moment (field-independent basis, Debye-Ang**2):
  XXX=           -237.5921  YYY=            226.9972  ZZZ=           -677.0798  XYY=          -1454.9063
  XXY=           1231.9363  XXZ=          -3448.8963  XZZ=           5481.2786  YZZ=           2395.1253
  YYZ=           2175.9951  XYZ=          -1633.7143
 Hexadecapole moment (field-independent basis, Debye-Ang**3):
 XXXX=         -74440.2592 YYYY=           -875.5694 ZZZZ=        -112869.3838 XXXY=          28392.1914
 XXXZ=         -21260.4800 YYYX=           4717.7429 YYYZ=          -7096.8799 ZZZX=        -132222.5388
 ZZZY=         -72127.4813 XXYY=         -30377.4930 XXZZ=         115644.3291 YYZZ=         -67418.9226
 XXYZ=         -35390.1514 YYXZ=          44948.8158 ZZXY=          47790.1561
 N-N= 8.497282655406D+02 E-N=-3.310061196611D+03  KE= 6.816017583148D+02
 Calling FoFJK, ICntrl=      2127 FMM=F ISym2X=0 I1Cent= 0 IOpClX= 0 NMat=1 NMatS=1 NMatT=0.
 -------------------------------------------------------------------
 Center     Atomic                   Forces (Hartrees/Bohr)
 Number     Number              X              Y              Z
 -------------------------------------------------------------------
      1        6          -0.004164245   -0.030750748   -0.002213013
      2        1          -0.001361896    0.001228212   -0.003453849
      3        8          -0.002509861    0.002633031   -0.002592249
      4        1          -0.001649156   -0.001167725   -0.002532139
      5        6           0.003125671    0.000240157   -0.038976754
      6        1          -0.000222548    0.001990223    0.001976252
      7        8          -0.004793449    0.024339355    0.007012511
      8        6          -0.004739418    0.006750507   -0.010509518
      9        1           0.002845746   -0.000239810    0.000775776
     10        8           0.008745659    0.003612162    0.016991158
     11        1          -0.000611300    0.000233345   -0.000045268
     12        6          -0.002324071    0.012727945   -0.015896146
     13        1           0.006974782    0.007180331    0.000982679
     14        8           0.012409243   -0.008581078    0.010185747
     15        1          -0.000327410   -0.001960952   -0.000769449
     16        6          -0.008621828   -0.022346221    0.032489068
     17        1          -0.001076097    0.000988653   -0.000715358
     18        8           0.001755766    0.004587313    0.000158020
     19        1           0.001759791   -0.000105671    0.000964179
     20        6           0.000604819    0.004203221    0.004067158
     21        1           0.002377701   -0.000789237   -0.011079273
     22        1          -0.000542234    0.004531301    0.006982135
     23        8          -0.008342544   -0.003848810    0.001592369
     24        1           0.000686880   -0.005455504    0.004605963
 -------------------------------------------------------------------
 Cartesian Forces:  Max     0.038976754 RMS     0.009624761

 GradGradGradGradGradGradGradGradGradGradGradGradGradGradGradGradGradGrad
 Berny optimization.
 Internal  Forces:  Max     0.020371741 RMS     0.005884808
 Search for a local minimum.
 Step number   1 out of a maximum of  142
 All quantities printed in internal units (Hartrees-Bohrs-Radians)
 Mixed Optimization -- RFO/linear search
 Second derivative matrix not updated -- first step.
 ITU=  0
     Eigenvalues ---    0.00548   0.01375   0.01446   0.01577   0.01599
     Eigenvalues ---    0.01617   0.01737   0.01946   0.02441   0.03495
     Eigenvalues ---    0.04366   0.04486   0.04827   0.05245   0.05361
     Eigenvalues ---    0.05739   0.05802   0.06062   0.06551   0.06828
     Eigenvalues ---    0.07055   0.07877   0.09087   0.10596   0.11380
     Eigenvalues ---    0.11921   0.13363   0.13812   0.15082   0.16000
     Eigenvalues ---    0.16000   0.16000   0.16000   0.16000   0.16537
     Eigenvalues ---    0.18850   0.19989   0.22051   0.23345   0.26674
     Eigenvalues ---    0.27404   0.29332   0.30706   0.32594   0.33340
     Eigenvalues ---    0.33513   0.33835   0.34176   0.34250   0.34471
     Eigenvalues ---    0.35225   0.37886   0.41872   0.42675   0.44478
     Eigenvalues ---    0.44692   0.46191   0.53278   0.53382   0.53775
     Eigenvalues ---    0.54012   0.540351000.000001000.000001000.00000
     Eigenvalues --- 1000.000001000.000001000.000001000.000001000.00000
     Eigenvalues --- 1000.000001000.000001000.000001000.000001000.00000
     Eigenvalues --- 1000.000001000.000001000.000001000.000001000.00000
     Eigenvalues --- 1000.000001000.000001000.000001000.000001000.00000
     Eigenvalues --- 1000.000001000.000001000.000001000.000001000.00000
     Eigenvalues --- 1000.000001000.000001000.000001000.000001000.00000
     Eigenvalues --- 1000.000001000.000001000.000001000.000001000.00000
     Eigenvalues --- 1000.000001000.000001000.000001000.000001000.00000
     Eigenvalues --- 1000.000001000.000001000.000001000.000001000.00000
     Eigenvalues --- 1000.000001000.000001000.000001000.000001000.00000
     Eigenvalues --- 1000.000001000.000001000.000001000.000001000.00000
     Eigenvalues --- 1000.000001000.000001000.000001000.000001000.00000
     Eigenvalues --- 1000.000001000.000001000.000001000.000001000.00000
     Eigenvalues --- 1000.000001000.00000
 RFO step:  Lambda=-1.96183331D-02 EMin= 5.47624831D-03
 Linear search not attempted -- first point.
 Iteration  1 RMS(Cart)=  0.08568048 RMS(Int)=  0.00405816
 Iteration  2 RMS(Cart)=  0.00504381 RMS(Int)=  0.00077486
 Iteration  3 RMS(Cart)=  0.00000878 RMS(Int)=  0.00077479
 Iteration  4 RMS(Cart)=  0.00000001 RMS(Int)=  0.00077479
 Iteration  1 RMS(Cart)=  0.00001786 RMS(Int)=  0.00002302
 Iteration  2 RMS(Cart)=  0.00001304 RMS(Int)=  0.00002429
 Iteration  3 RMS(Cart)=  0.00001022 RMS(Int)=  0.00002681
 Iteration  4 RMS(Cart)=  0.00000854 RMS(Int)=  0.00002961
 Iteration  5 RMS(Cart)=  0.00000749 RMS(Int)=  0.00003240
 Iteration  6 RMS(Cart)=  0.00000677 RMS(Int)=  0.00003507
 Iteration  7 RMS(Cart)=  0.00000621 RMS(Int)=  0.00003761
 Iteration  8 RMS(Cart)=  0.00000575 RMS(Int)=  0.00004002
 Iteration  9 RMS(Cart)=  0.00000534 RMS(Int)=  0.00004228
 Iteration 10 RMS(Cart)=  0.00000498 RMS(Int)=  0.00004442
 Iteration 11 RMS(Cart)=  0.00000464 RMS(Int)=  0.00004642
 Iteration 12 RMS(Cart)=  0.00000433 RMS(Int)=  0.00004830
 Iteration 13 RMS(Cart)=  0.00000404 RMS(Int)=  0.00005007
 Iteration 14 RMS(Cart)=  0.00000377 RMS(Int)=  0.00005172
 Iteration 15 RMS(Cart)=  0.00000353 RMS(Int)=  0.00005327
 Iteration 16 RMS(Cart)=  0.00000330 RMS(Int)=  0.00005471
 Iteration 17 RMS(Cart)=  0.00000308 RMS(Int)=  0.00005607
 Iteration 18 RMS(Cart)=  0.00000289 RMS(Int)=  0.00005733
 Iteration 19 RMS(Cart)=  0.00000270 RMS(Int)=  0.00005852
 Iteration 20 RMS(Cart)=  0.00000253 RMS(Int)=  0.00005962
 Iteration 21 RMS(Cart)=  0.00000237 RMS(Int)=  0.00006066
 Iteration 22 RMS(Cart)=  0.00000222 RMS(Int)=  0.00006162
 Iteration 23 RMS(Cart)=  0.00000208 RMS(Int)=  0.00006253
 Iteration 24 RMS(Cart)=  0.00000195 RMS(Int)=  0.00006337
 Iteration 25 RMS(Cart)=  0.00000183 RMS(Int)=  0.00006416
 Iteration 26 RMS(Cart)=  0.00000171 RMS(Int)=  0.00006490
 Iteration 27 RMS(Cart)=  0.00000161 RMS(Int)=  0.00006559
 Iteration 28 RMS(Cart)=  0.00000151 RMS(Int)=  0.00006624
 Iteration 29 RMS(Cart)=  0.00000142 RMS(Int)=  0.00006684
 Iteration 30 RMS(Cart)=  0.00000133 RMS(Int)=  0.00006741
 Iteration 31 RMS(Cart)=  0.00000125 RMS(Int)=  0.00006794
 Iteration 32 RMS(Cart)=  0.00000117 RMS(Int)=  0.00006843
 Iteration 33 RMS(Cart)=  0.00000110 RMS(Int)=  0.00006890
 Iteration 34 RMS(Cart)=  0.00000103 RMS(Int)=  0.00006933
 Iteration 35 RMS(Cart)=  0.00000097 RMS(Int)=  0.00006974
 Variable       Old X    -DE/DX   Delta X   Delta X   Delta X     New X
                                 (Linear)    (Quad)   (Total)
    R1        2.06910   0.00222   0.00000   0.00613   0.00613   2.07523
    R2        2.63916   0.00349   0.00000   0.00725   0.00725   2.64641
    R3        2.68997  -0.01122   0.00000  -0.01180  -0.01188   2.67809
    R4        2.89689   0.01379   0.00000   0.03440   0.03383   2.93072
    R5        1.82937  -0.00289   0.00000  -0.00518  -0.00518   1.82419
    R6        2.07034  -0.00039   0.00000  -0.00107  -0.00107   2.06927
    R7        2.78842  -0.01005   0.00000  -0.00041  -0.00001   2.78841
    R8        2.86954   0.00543   0.00000   0.02001   0.02040   2.88995
    R9        2.86578   0.00476   0.00000   0.01456   0.01456   2.88034
   R10        2.08459   0.00169   0.00000   0.00478   0.00478   2.08937
   R11        2.65635  -0.00300   0.00000  -0.00643  -0.00643   2.64992
   R12        2.92699   0.00314   0.00000  -0.02230  -0.02272   2.90427
   R13        1.82700  -0.00005   0.00000  -0.00008  -0.00008   1.82691
   R14        2.07609  -0.00422   0.00000  -0.01178  -0.01178   2.06431
   R15        2.69087   0.00135   0.00000   0.00309   0.00309   2.69395
   R16        2.88170   0.00867   0.00000   0.01703   0.01733   2.89903
   R17        1.82720  -0.00071   0.00000  -0.00127  -0.00127   1.82593
   R18        2.05312   0.00139   0.00000   0.00373   0.00373   2.05685
   R19        2.68072   0.00149   0.00000   0.00333   0.00333   2.68406
   R20        1.83299   0.00152   0.00000   0.00274   0.00274   1.83573
   R21        2.06542   0.00524   0.00000   0.01439   0.01439   2.07981
   R22        2.08159  -0.00593   0.00000  -0.01672  -0.01672   2.06487
   R23        2.65886   0.00614   0.00000   0.01323   0.01323   2.67209
   R24        1.83395  -0.00328   0.00000  -0.00594  -0.00594   1.82802
    A1        1.87202  -0.00414   0.00000  -0.03482  -0.03498   1.83704
    A2        1.77743   0.00191   0.00000  -0.01423  -0.01420   1.76324
    A3        1.87951   0.00657   0.00000   0.00496   0.00525   1.88476
    A4        2.03514  -0.00539   0.00000  -0.00495  -0.00577   2.02937
    A5        2.02880  -0.00064   0.00000   0.03591   0.03585   2.06465
    A6        1.84953   0.00294   0.00000   0.00694   0.00652   1.85605
    A7        1.91815   0.00161   0.00000   0.00895   0.00895   1.92710
    A8        1.87364  -0.00337   0.00000   0.00290   0.00286   1.87650
    A9        1.92350  -0.00136   0.00000  -0.00440  -0.00466   1.91884
   A10        1.93231  -0.00012   0.00000  -0.01030  -0.01021   1.92210
   A11        1.87022   0.00284   0.00000  -0.01392  -0.01379   1.85642
   A12        1.86358   0.00212   0.00000   0.01263   0.01249   1.87607
   A13        1.99466  -0.00013   0.00000   0.01307   0.01327   2.00793
   A14        2.01434   0.01308   0.00000   0.00475   0.00459   2.01893
   A15        1.91033  -0.00223   0.00000   0.01693   0.01619   1.92652
   A16        1.84559   0.00986   0.00000   0.08935   0.08975   1.93534
   A17        1.88046   0.00777   0.00000   0.00382   0.00521   1.88568
   A18        1.94790   0.00118   0.00000  -0.00952  -0.01347   1.93443
   A19        1.89545   0.00447   0.00000   0.00334   0.00218   1.89762
   A20        1.98167  -0.02037   0.00000  -0.09841  -0.09903   1.88265
   A21        1.89434  -0.00063   0.00000  -0.00352  -0.00352   1.89082
   A22        1.91633  -0.00355   0.00000   0.00084   0.00029   1.91661
   A23        1.96879   0.00396   0.00000   0.00967   0.00769   1.97648
   A24        1.92146  -0.00134   0.00000  -0.01010  -0.01117   1.91029
   A25        1.94641  -0.00774   0.00000  -0.09907  -0.09937   1.84704
   A26        1.87420   0.00157   0.00000   0.01387   0.01498   1.88918
   A27        1.83273   0.00752   0.00000   0.08891   0.08889   1.92163
   A28        1.91214  -0.00322   0.00000  -0.01795  -0.01795   1.89419
   A29        1.86081   0.00732   0.00000   0.01785   0.01809   1.87890
   A30        1.95314  -0.00884   0.00000  -0.00675  -0.00658   1.94656
   A31        1.86151   0.00809   0.00000   0.02751   0.02743   1.88894
   A32        1.98136  -0.00403   0.00000  -0.00297  -0.00317   1.97819
   A33        1.89818  -0.00199   0.00000  -0.01930  -0.01981   1.87837
   A34        1.90427   0.00038   0.00000  -0.01425  -0.01435   1.88992
   A35        1.84788   0.00028   0.00000   0.00156   0.00156   1.84944
   A36        1.91879  -0.00831   0.00000  -0.03121  -0.03343   1.88537
   A37        1.89252   0.00333   0.00000   0.00441   0.00434   1.89687
   A38        1.92379   0.00756   0.00000   0.03606   0.03511   1.95891
   A39        1.89549  -0.00025   0.00000  -0.01601  -0.01513   1.88036
   A40        1.88340   0.00841   0.00000   0.09358   0.09349   1.97689
   A41        1.94969  -0.01104   0.00000  -0.08798  -0.08713   1.86256
   A42        1.83937   0.00723   0.00000   0.04026   0.04026   1.87963
    D1       -2.15612  -0.00210   0.00000   0.00254   0.00300  -2.15312
    D2        2.14922   0.00132   0.00000   0.04670   0.04637   2.19559
    D3       -0.05262   0.00283   0.00000   0.00602   0.00590  -0.04672
    D4        3.06735  -0.00491   0.00000   0.00061   0.00060   3.06795
    D5       -1.18495  -0.01129   0.00000  -0.05362  -0.05328  -1.23823
    D6        1.10363  -0.01388   0.00000  -0.00158  -0.00171   1.10192
    D7        1.28665  -0.00147   0.00000  -0.00445  -0.00374   1.28291
    D8       -0.81390  -0.00735   0.00000  -0.05350  -0.05383  -0.86773
    D9       -2.93849   0.00706   0.00000   0.01101   0.01104  -2.92745
   D10       -0.81283  -0.00066   0.00000   0.01326   0.01404  -0.79879
   D11       -2.91339  -0.00654   0.00000  -0.03579  -0.03604  -2.94943
   D12        1.24521   0.00787   0.00000   0.02872   0.02882   1.27403
   D13       -3.10500   0.00462   0.00000  -0.01546  -0.01478  -3.11978
   D14        1.07763  -0.00126   0.00000  -0.06451  -0.06487   1.01276
   D15       -1.04696   0.01316   0.00000   0.00000   0.00000  -1.04696
   D16       -2.09590   0.00115   0.00000   0.00273   0.00238  -2.09352
   D17       -0.02990  -0.00071   0.00000  -0.00817  -0.00871  -0.03861
   D18        2.11445   0.00192   0.00000   0.00666   0.00627   2.12072
   D19        0.98637   0.00534   0.00000  -0.00674  -0.00671   0.97966
   D20       -3.12080  -0.00029   0.00000  -0.00238  -0.00233  -3.12313
   D21       -1.03954   0.00024   0.00000  -0.00629  -0.00642  -1.04596
   D22       -1.04697   0.00846   0.00000   0.00000  -0.00001  -1.04698
   D23        1.12905   0.00283   0.00000   0.00436   0.00437   1.13342
   D24       -3.07288   0.00336   0.00000   0.00045   0.00029  -3.07260
   D25       -3.10781   0.00397   0.00000  -0.01405  -0.01401  -3.12182
   D26       -0.93180  -0.00166   0.00000  -0.00969  -0.00963  -0.94143
   D27        1.14946  -0.00113   0.00000  -0.01360  -0.01371   1.13574
   D28        3.08246   0.00319   0.00000  -0.00827  -0.00858   3.07388
   D29       -1.13084   0.00008   0.00000  -0.04305  -0.04291  -1.17375
   D30        1.00839  -0.00667   0.00000  -0.12639  -0.12626   0.88214
   D31       -1.16651   0.00033   0.00000  -0.00299  -0.00346  -1.16998
   D32        0.90337  -0.00278   0.00000  -0.03776  -0.03779   0.86558
   D33        3.04260  -0.00953   0.00000  -0.12110  -0.12114   2.92146
   D34        0.89811   0.00523   0.00000  -0.00412  -0.00422   0.89389
   D35        2.96799   0.00211   0.00000  -0.03890  -0.03855   2.92944
   D36       -1.17596  -0.00463   0.00000  -0.12224  -0.12190  -1.29786
   D37        0.95035  -0.00054   0.00000   0.01155   0.01324   0.96359
   D38       -1.12548  -0.00450   0.00000  -0.05804  -0.05700  -1.18248
   D39        3.00839   0.00408   0.00000   0.01950   0.01676   3.02516
   D40        2.05983   0.00080   0.00000   0.01140   0.01173   2.07157
   D41       -2.04082  -0.00916   0.00000  -0.11065  -0.11041  -2.15123
   D42       -0.00001   0.00184   0.00000   0.00000  -0.00001  -0.00002
   D43       -2.15573   0.00491   0.00000   0.03546   0.03524  -2.12050
   D44        0.02680  -0.00504   0.00000  -0.08658  -0.08691  -0.06011
   D45        2.06761   0.00596   0.00000   0.02407   0.02349   2.09110
   D46        0.02209  -0.00464   0.00000  -0.04449  -0.04372  -0.02163
   D47        2.20462  -0.01460   0.00000  -0.16654  -0.16587   2.03875
   D48       -2.03775  -0.00360   0.00000  -0.05589  -0.05547  -2.09322
   D49        0.77161   0.00380   0.00000   0.02280   0.02272   0.79433
   D50        2.93769  -0.00390   0.00000  -0.04549  -0.04294   2.89475
   D51       -1.32108  -0.00156   0.00000  -0.02707  -0.02954  -1.35062
   D52        1.04695  -0.01497   0.00000   0.00000  -0.00001   1.04693
   D53       -1.11167  -0.00643   0.00000  -0.00239  -0.00270  -1.11437
   D54        3.04817  -0.00279   0.00000   0.03172   0.03131   3.07948
   D55       -1.03871  -0.01086   0.00000  -0.00358  -0.00288  -1.04160
   D56        3.08585  -0.00232   0.00000  -0.00597  -0.00557   3.08028
   D57        0.96251   0.00132   0.00000   0.02814   0.02845   0.99096
   D58       -3.11235  -0.00648   0.00000   0.05902   0.05942  -3.05293
   D59        1.01222   0.00206   0.00000   0.05663   0.05673   1.06895
   D60       -1.11112   0.00569   0.00000   0.09075   0.09074  -1.02038
   D61        2.92101   0.00500   0.00000  -0.01418  -0.01422   2.90679
   D62        0.92024  -0.00668   0.00000  -0.03961  -0.03942   0.88082
   D63       -1.24945  -0.00063   0.00000  -0.01413  -0.01428  -1.26374
   D64        1.19935  -0.00381   0.00000  -0.06008  -0.05822   1.14113
   D65       -0.89621  -0.00328   0.00000  -0.10061  -0.10349  -0.99970
   D66       -2.97856  -0.00178   0.00000  -0.08836  -0.08734  -3.06590
         Item               Value     Threshold  Converged?
 Maximum Force            0.013840     0.000450     NO 
 RMS     Force            0.004335     0.000300     NO 
 Maximum Displacement     0.372410     0.001800     NO 
 RMS     Displacement     0.085988     0.001200     NO 
 Predicted change in Energy=-1.204552D-02
 GradGradGradGradGradGradGradGradGradGradGradGradGradGradGradGradGradGrad

                          Input orientation:                          
 ---------------------------------------------------------------------
 Center     Atomic      Atomic             Coordinates (Angstroms)
 Number     Number       Type             X           Y           Z
 ---------------------------------------------------------------------
      1          6           0       21.050389   -1.231684  -32.738756
      2          1           0       21.156165   -1.784180  -33.681901
      3          8           0       20.712622    0.074854  -33.112992
      4          1           0       21.347286    0.704262  -32.748447
      5          6           0       19.699286   -1.562092  -30.723029
      6          1           0       19.891887   -2.413140  -30.061465
      7          8           0       20.034417   -1.982939  -32.097023
      8          6           0       22.342916   -1.447968  -31.909424
      9          1           0       23.179518   -0.868957  -32.342204
     10          8           0       22.666028   -2.810390  -31.833391
     11          1           0       22.728072   -3.158906  -32.733011
     12          6           0       22.081629   -0.944876  -30.480926
     13          1           0       22.189604   -1.769320  -29.772447
     14          8           0       23.006351    0.054463  -30.058452
     15          1           0       23.108716    0.698995  -30.770998
     16          6           0       20.646769   -0.411223  -30.381686
     17          1           0       20.464784    0.456602  -31.012920
     18          8           0       20.420346   -0.035069  -29.030905
     19          1           0       21.168140    0.533215  -28.782860
     20          6           0       18.217431   -1.205911  -30.701595
     21          1           0       18.074295   -0.306947  -31.320197
     22          1           0       17.654855   -2.020854  -31.163468
     23          8           0       17.720337   -1.063288  -29.385547
     24          1           0       18.160591   -0.300185  -28.986043
 ---------------------------------------------------------------------
                    Distance matrix (angstroms):
                    1          2          3          4          5
     1  C    0.000000
     2  H    1.098163   0.000000
     3  O    1.400422   1.994090   0.000000
     4  H    1.958604   2.664621   0.965321   0.000000
     5  C    2.449042   3.305563   3.068935   3.457540   0.000000
     6  H    3.147357   3.886071   4.021882   4.365347   1.095009
     7  O    1.417182   1.951835   2.393045   3.060886   1.475563
     8  C    1.550869   2.159419   2.534841   2.515418   2.899886
     9  H    2.195909   2.593526   2.751449   2.448903   3.900537
    10  O    2.433575   2.598034   3.711847   3.863830   3.404808
    11  H    2.555159   2.293720   3.829312   4.102545   3.970313
    12  C    2.498702   3.436154   3.137164   2.898373   2.472879
    13  H    3.222708   4.043765   4.091661   3.960389   2.673618
    14  O    3.558650   4.464658   3.819924   3.226578   3.740534
    15  H    3.440393   4.295575   3.408189   2.648201   4.091336
    16  C    2.528210   3.610528   2.775002   2.708613   1.529294
    17  H    2.484302   3.552826   2.148827   1.962702   2.178336
    18  O    3.946772   5.023205   4.094013   3.902044   2.390609
    19  H    4.333342   5.419508   4.378086   3.973315   3.211246
    20  C    3.489461   4.225254   3.698806   4.199327   1.524210
    21  H    3.424118   4.154249   3.212577   3.711456   2.138362
    22  H    3.825438   4.319455   4.188386   4.855148   2.141062
    23  O    4.728807   5.548266   4.913551   5.252436   2.440062
    24  H    4.827161   5.764268   4.866747   5.031861   2.641422
                    6          7          8          9         10
     6  H    0.000000
     7  O    2.085398   0.000000
     8  C    3.217771   2.377090   0.000000
     9  H    4.288915   3.345554   1.105648   0.000000
    10  O    3.315628   2.771201   1.402276   2.071648   0.000000
    11  H    3.967022   3.007184   1.937512   2.366517   0.966762
    12  C    2.669591   2.807209   1.536873   2.162286   2.377147
    13  H    2.403650   3.177124   2.166435   2.897281   2.357604
    14  O    3.973532   4.139948   2.474579   2.469456   3.387272
    15  H    4.531756   4.289805   2.547923   2.220850   3.693295
    16  C    2.163345   2.405753   2.507137   3.235425   3.455555
    17  H    3.077157   2.704044   2.821078   3.300589   4.023914
    18  O    2.645099   3.652975   3.738774   4.390115   4.538659
    19  H    3.456105   4.312776   3.883373   4.322113   4.767505
    20  C    2.161243   2.419180   4.305469   5.237122   4.862647
    21  H    3.053539   2.693415   4.457605   5.236760   5.254960
    22  H    2.524404   2.556419   4.781481   5.765258   5.117033
    23  O    2.644730   3.681417   5.280736   6.211461   5.788279
    24  H    2.935728   4.002635   5.230239   6.064401   5.891306
                   11         12         13         14         15
    11  H    0.000000
    12  C    3.223616   0.000000
    13  H    3.314488   1.092387   0.000000
    14  O    4.190041   1.425578   2.018678   0.000000
    15  H    4.344857   1.959939   2.816816   0.966241   0.000000
    16  C    4.172567   1.534099   2.143815   2.426720   2.728613
    17  H    4.599248   2.204846   3.077093   2.744502   2.666019
    18  O    5.365589   2.385408   2.586076   2.784114   3.285439
    19  H    5.627507   2.429536   2.706352   2.288091   2.783166
    20  C    5.318526   3.879286   4.118118   4.993589   5.249586
    21  H    5.638027   4.143677   4.633555   5.103704   5.163229
    22  H    5.431037   4.606509   4.749964   5.845213   6.107063
    23  O    6.377659   4.498305   4.541203   5.444641   5.836073
    24  H    6.563074   4.245567   4.360016   4.975664   5.354285
                   16         17         18         19         20
    16  C    0.000000
    17  H    1.088436   0.000000
    18  O    1.420342   2.042571   0.000000
    19  H    1.928740   2.339604   0.971426   0.000000
    20  C    2.575956   2.812732   3.002484   3.925912   0.000000
    21  H    2.740310   2.528214   3.289184   4.088500   1.100587
    22  H    3.486208   3.749154   4.017351   4.953155   1.092681
    23  O    3.159349   3.534176   2.910852   3.847000   1.414010
    24  H    2.853284   3.160737   2.275696   3.127490   1.940796
                   21         22         23         24
    21  H    0.000000
    22  H    1.771432   0.000000
    23  O    2.107180   2.020451   0.000000
    24  H    2.335759   2.820931   0.967344   0.000000
 Symmetry turned off by external request.
 Stoichiometry    C6H12O6
 Framework group  C1[X(C6H12O6)]
 Deg. of freedom    66
 Full point group                 C1      NOp   1
 Rotational constants (GHZ):      1.2575711      0.7704338      0.6208618
 Standard basis: 6-31G(d) (6D, 7F)
 Integral buffers will be    131072 words long.
 Raffenetti 2 integral format.
 Two-electron integral symmetry is turned off.
   204 basis functions,   384 primitive gaussians,   204 cartesian basis functions
    48 alpha electrons       48 beta electrons
       nuclear repulsion energy       842.9240339034 Hartrees.
 NAtoms=   24 NActive=   24 NUniq=   24 SFac= 1.00D+00 NAtFMM=   50 NAOKFM=F Big=F
 One-electron integrals computed using PRISM.
 NBasis=   204 RedAO= T  NBF=   204
 NBsUse=   204 1.00D-06 NBFU=   204
 Initial guess read from the read-write file.
 B after Tr=     0.000000    0.000000    0.000000
         Rot=    1.000000    0.000000    0.000000    0.000000 Ang=   0.00 deg.
 Harris functional with IExCor= 1009 diagonalized for initial guess.
 ExpMin= 1.61D-01 ExpMax= 5.48D+03 ExpMxC= 8.25D+02 IAcc=1 IRadAn=         1 AccDes= 0.00D+00
 HarFok:  IExCor= 1009 AccDes= 0.00D+00 IRadAn=         1 IDoV= 1
 ScaDFX=  1.000000  1.000000  1.000000  1.000000
 FoFCou: FMM=F IPFlag=           0 FMFlag=      100000 FMFlg1=           0
         NFxFlg=           0 DoJE=T BraDBF=F KetDBF=T FulRan=T
         Omega=  0.000000  0.000000  1.000000  0.000000  0.000000 ICntrl=     500 IOpCl=  0
         NMat0=    1 NMatS0=    1 NMatT0=    0 NMatD0=    1 NMtDS0=    0 NMtDT0=    0
         I1Cent=           4 NGrid=           0.
 Symmetry not used in FoFCou.
 Requested convergence on RMS density matrix=1.00D-08 within 128 cycles.
 Requested convergence on MAX density matrix=1.00D-06.
 Requested convergence on             energy=1.00D-06.
 No special actions if energy rises.
 Keep R1 ints in memory in canonical form, NReq=223279433.
 Integral accuracy reduced to 1.0D-05 until final iterations.
 Initial convergence to 1.0D-05 achieved.  Increase integral accuracy.
 SCF Done:  E(RM062X) =  -686.848965430     A.U. after   13 cycles
             Convg  =    0.6050D-08             -V/T =  2.0079
 Calling FoFJK, ICntrl=      2127 FMM=F ISym2X=0 I1Cent= 0 IOpClX= 0 NMat=1 NMatS=1 NMatT=0.
 -------------------------------------------------------------------
 Center     Atomic                   Forces (Hartrees/Bohr)
 Number     Number              X              Y              Z
 -------------------------------------------------------------------
      1        6           0.001852033   -0.041255757   -0.011581583
      2        1           0.001527880   -0.000633558   -0.000602427
      3        8          -0.000014312   -0.000577415    0.002898773
      4        1           0.000758050    0.001016284    0.000484862
      5        6           0.008733468    0.002479853   -0.030112039
      6        1           0.000558252    0.001070483    0.001629371
      7        8          -0.008273307    0.022621054    0.012250786
      8        6          -0.000905788    0.012752710    0.000642800
      9        1          -0.000768387    0.000359992   -0.001389191
     10        8          -0.001297120    0.003157020   -0.000605287
     11        1          -0.000298146   -0.002040379   -0.001215038
     12        6           0.000954413    0.011711429   -0.008360215
     13        1          -0.000326842   -0.000533766   -0.000613385
     14        8          -0.002789735   -0.002326107    0.002846884
     15        1           0.000622566    0.001224714   -0.000655423
     16        6           0.001017146   -0.010782207    0.035975724
     17        1          -0.001046790    0.000283831   -0.002402095
     18        8          -0.005109018    0.001076299    0.000110312
     19        1           0.000379883   -0.001521320    0.000485167
     20        6           0.000992926    0.001218279    0.004842902
     21        1          -0.001568452    0.000729891    0.000585442
     22        1           0.000954693   -0.000389913   -0.000545861
     23        8           0.000074734    0.000753494   -0.005871266
     24        1           0.003971854   -0.000394912    0.001200787
 -------------------------------------------------------------------
 Cartesian Forces:  Max     0.041255757 RMS     0.008759828

 GradGradGradGradGradGradGradGradGradGradGradGradGradGradGradGradGradGrad
 Berny optimization.
 Using GEDIIS/GDIIS optimizer.
 Internal  Forces:  Max     0.013849209 RMS     0.004254253
 Search for a local minimum.
 Step number   2 out of a maximum of  142
 All quantities printed in internal units (Hartrees-Bohrs-Radians)
 Mixed Optimization -- RFO/linear search
 Update second derivatives using D2CorX and points    1    2
 DE= -8.65D-03 DEPred=-1.20D-02 R= 7.18D-01
 SS=  1.41D+00  RLast= 4.84D-01 DXNew= 5.0454D-01 1.4512D+00
 Trust test= 7.18D-01 RLast= 4.84D-01 DXMaxT set to 5.05D-01
 ITU=  1  0
 Use linear search instead of GDIIS.
     Eigenvalues ---    0.00571   0.01376   0.01438   0.01551   0.01570
     Eigenvalues ---    0.01617   0.01740   0.01879   0.02345   0.03463
     Eigenvalues ---    0.04284   0.04421   0.04827   0.05253   0.05339
     Eigenvalues ---    0.05672   0.05840   0.06182   0.06617   0.06982
     Eigenvalues ---    0.07115   0.07863   0.09268   0.10255   0.11534
     Eigenvalues ---    0.12514   0.13887   0.14167   0.15727   0.15970
     Eigenvalues ---    0.16000   0.16000   0.16000   0.16453   0.16853
     Eigenvalues ---    0.19184   0.20203   0.22771   0.23431   0.26768
     Eigenvalues ---    0.28180   0.30189   0.31536   0.32751   0.33336
     Eigenvalues ---    0.33516   0.33824   0.34179   0.34232   0.34432
     Eigenvalues ---    0.35246   0.37849   0.41905   0.42665   0.44647
     Eigenvalues ---    0.45079   0.46221   0.53340   0.53395   0.53810
     Eigenvalues ---    0.54020   0.541061000.000001000.000001000.00000
     Eigenvalues --- 1000.000001000.000001000.000001000.000001000.00000
     Eigenvalues --- 1000.000001000.000001000.000001000.000001000.00000
     Eigenvalues --- 1000.000001000.000001000.000001000.000001000.00000
     Eigenvalues --- 1000.000001000.000001000.000001000.000001000.00000
     Eigenvalues --- 1000.000001000.000001000.000001000.000001000.00000
     Eigenvalues --- 1000.000001000.000001000.000001000.000001000.00000
     Eigenvalues --- 1000.000001000.000001000.000001000.000001000.00000
     Eigenvalues --- 1000.000001000.000001000.000001000.000001000.00000
     Eigenvalues --- 1000.000001000.000001000.000001000.000001000.00000
     Eigenvalues --- 1000.000001000.000001000.000001000.000001000.00000
     Eigenvalues --- 1000.000001000.000001000.000001000.000001000.00000
     Eigenvalues --- 1000.000001000.000001000.000001000.000001000.00000
     Eigenvalues --- 1000.000001000.000001000.000001000.000001000.00000
     Eigenvalues --- 1000.000001000.00000
 RFO step:  Lambda=-2.91217547D-03 EMin= 5.70849573D-03
 Quartic linear search produced a step of -0.09289.
 Iteration  1 RMS(Cart)=  0.04287125 RMS(Int)=  0.00148642
 Iteration  2 RMS(Cart)=  0.00148278 RMS(Int)=  0.00013383
 Iteration  3 RMS(Cart)=  0.00000242 RMS(Int)=  0.00013381
 Iteration  4 RMS(Cart)=  0.00000000 RMS(Int)=  0.00013381
 Iteration  1 RMS(Cart)=  0.00000351 RMS(Int)=  0.00000427
 Iteration  2 RMS(Cart)=  0.00000251 RMS(Int)=  0.00000454
 Iteration  3 RMS(Cart)=  0.00000197 RMS(Int)=  0.00000502
 Iteration  4 RMS(Cart)=  0.00000167 RMS(Int)=  0.00000550
 Iteration  5 RMS(Cart)=  0.00000149 RMS(Int)=  0.00000596
 Iteration  6 RMS(Cart)=  0.00000136 RMS(Int)=  0.00000639
 Iteration  7 RMS(Cart)=  0.00000126 RMS(Int)=  0.00000680
 Iteration  8 RMS(Cart)=  0.00000117 RMS(Int)=  0.00000718
 Iteration  9 RMS(Cart)=  0.00000110 RMS(Int)=  0.00000755
 Iteration 10 RMS(Cart)=  0.00000102 RMS(Int)=  0.00000790
 Iteration 11 RMS(Cart)=  0.00000095 RMS(Int)=  0.00000824
 Variable       Old X    -DE/DX   Delta X   Delta X   Delta X     New X
                                 (Linear)    (Quad)   (Total)
    R1        2.07523   0.00098  -0.00057   0.00369   0.00312   2.07835
    R2        2.64641  -0.00067  -0.00067   0.00006  -0.00062   2.64580
    R3        2.67809  -0.00934   0.00110  -0.00392  -0.00270   2.67539
    R4        2.93072  -0.00263  -0.00314  -0.01006  -0.01314   2.91758
    R5        1.82419   0.00135   0.00048   0.00128   0.00176   1.82596
    R6        2.06927   0.00025   0.00010   0.00045   0.00055   2.06982
    R7        2.78841  -0.00961   0.00000  -0.00593  -0.00600   2.78241
    R8        2.88995  -0.00394  -0.00190  -0.01798  -0.02005   2.86989
    R9        2.88034  -0.00385  -0.00135  -0.00845  -0.00980   2.87054
   R10        2.08937   0.00015  -0.00044   0.00130   0.00086   2.09023
   R11        2.64992  -0.00156   0.00060  -0.00431  -0.00371   2.64621
   R12        2.90427   0.00861   0.00211   0.00127   0.00346   2.90773
   R13        1.82691   0.00185   0.00001   0.00304   0.00305   1.82996
   R14        2.06431  -0.00003   0.00109  -0.00226  -0.00117   2.06315
   R15        2.69395  -0.00153  -0.00029  -0.00268  -0.00297   2.69099
   R16        2.89903  -0.00242  -0.00161  -0.00898  -0.01060   2.88842
   R17        1.82593   0.00136   0.00012   0.00202   0.00213   1.82807
   R18        2.05685   0.00179  -0.00035   0.00522   0.00487   2.06172
   R19        2.68406   0.00121  -0.00031   0.00314   0.00283   2.68689
   R20        1.83573  -0.00048  -0.00025  -0.00029  -0.00055   1.83518
   R21        2.07981   0.00047  -0.00134   0.00389   0.00255   2.08236
   R22        2.06487   0.00003   0.00155  -0.00302  -0.00147   2.06340
   R23        2.67209  -0.00574  -0.00123  -0.00905  -0.01028   2.66181
   R24        1.82802   0.00198   0.00055   0.00223   0.00278   1.83079
    A1        1.83704   0.00170   0.00325   0.01236   0.01571   1.85274
    A2        1.76324   0.00443   0.00132   0.01492   0.01627   1.77950
    A3        1.88476   0.00487  -0.00049   0.00247   0.00198   1.88674
    A4        2.02937  -0.00506   0.00054  -0.01009  -0.00977   2.01959
    A5        2.06465  -0.00867  -0.00333  -0.01019  -0.01369   2.05096
    A6        1.85605   0.00544  -0.00061  -0.00378  -0.00448   1.85157
    A7        1.92710   0.00033  -0.00083   0.00351   0.00268   1.92978
    A8        1.87650  -0.00469  -0.00027   0.01295   0.01264   1.88914
    A9        1.91884  -0.00024   0.00043  -0.00984  -0.00969   1.90915
   A10        1.92210   0.00390   0.00095   0.00106   0.00132   1.92342
   A11        1.85642   0.01001   0.00128   0.00576   0.00717   1.86359
   A12        1.87607   0.00170  -0.00116   0.02538   0.02433   1.90039
   A13        2.00793  -0.01027  -0.00123  -0.03122  -0.03252   1.97541
   A14        2.01893   0.00564  -0.00043  -0.00272  -0.00322   2.01571
   A15        1.92652  -0.00066  -0.00150  -0.00652  -0.00798   1.91854
   A16        1.93534  -0.00382  -0.00834   0.00639  -0.00206   1.93328
   A17        1.88568   0.00527  -0.00048   0.00047   0.00002   1.88570
   A18        1.93443   0.00143   0.00125   0.00451   0.00615   1.94058
   A19        1.89762   0.00320  -0.00020   0.00957   0.00945   1.90707
   A20        1.88265  -0.00528   0.00920  -0.01458  -0.00541   1.87724
   A21        1.89082   0.00242   0.00033   0.01269   0.01302   1.90383
   A22        1.91661  -0.00641  -0.00003  -0.01419  -0.01416   1.90245
   A23        1.97648   0.00746  -0.00071   0.02841   0.02774   2.00422
   A24        1.91029   0.00181   0.00104  -0.00047   0.00050   1.91079
   A25        1.84704   0.00003   0.00923  -0.02615  -0.01668   1.83036
   A26        1.88918   0.00082  -0.00139  -0.00704  -0.00860   1.88058
   A27        1.92163  -0.00408  -0.00826   0.01716   0.00848   1.93011
   A28        1.89419   0.00123   0.00167   0.00335   0.00502   1.89921
   A29        1.87890   0.00093  -0.00168  -0.00271  -0.00439   1.87452
   A30        1.94656  -0.00435   0.00061  -0.00861  -0.00807   1.93849
   A31        1.88894   0.00095  -0.00255  -0.01601  -0.01847   1.87047
   A32        1.97819  -0.00344   0.00029  -0.00245  -0.00226   1.97593
   A33        1.87837   0.00595   0.00184   0.02548   0.02731   1.90568
   A34        1.88992   0.00050   0.00133   0.00470   0.00581   1.89572
   A35        1.84944   0.00025  -0.00014   0.00170   0.00155   1.85099
   A36        1.88537   0.00230   0.00311   0.00100   0.00425   1.88962
   A37        1.89687   0.00113  -0.00040   0.00857   0.00819   1.90505
   A38        1.95891  -0.00580  -0.00326  -0.01842  -0.02160   1.93730
   A39        1.88036  -0.00059   0.00141   0.00097   0.00225   1.88261
   A40        1.97689   0.00051  -0.00868   0.00960   0.00087   1.97775
   A41        1.86256   0.00264   0.00809  -0.00084   0.00722   1.86978
   A42        1.87963  -0.00177  -0.00374  -0.00211  -0.00585   1.87379
    D1       -2.15312   0.00058  -0.00028   0.00754   0.00724  -2.14589
    D2        2.19559  -0.00344  -0.00431  -0.01355  -0.01771   2.17788
    D3       -0.04672   0.00274  -0.00055   0.01400   0.01333  -0.03339
    D4        3.06795  -0.00493  -0.00006   0.00956   0.00955   3.07750
    D5       -1.23823  -0.00230   0.00495   0.02929   0.03420  -1.20403
    D6        1.10192  -0.01385   0.00016   0.00216   0.00239   1.10431
    D7        1.28291  -0.00249   0.00035  -0.02436  -0.02410   1.25881
    D8       -0.86773  -0.00121   0.00500  -0.02999  -0.02496  -0.89269
    D9       -2.92745   0.00419  -0.00103  -0.01623  -0.01724  -2.94469
   D10       -0.79879  -0.00278  -0.00130  -0.03578  -0.03712  -0.83591
   D11       -2.94943  -0.00150   0.00335  -0.04141  -0.03798  -2.98741
   D12        1.27403   0.00390  -0.00268  -0.02765  -0.03026   1.24377
   D13       -3.11978   0.00689   0.00137  -0.00813  -0.00687  -3.12665
   D14        1.01276   0.00817   0.00603  -0.01376  -0.00772   1.00504
   D15       -1.04696   0.01357   0.00000   0.00000   0.00000  -1.04696
   D16       -2.09352   0.00073  -0.00022   0.00031   0.00015  -2.09337
   D17       -0.03861   0.00324   0.00081  -0.00172  -0.00103  -0.03964
   D18        2.12072  -0.00227  -0.00058  -0.02127  -0.02190   2.09883
   D19        0.97966   0.00739   0.00062   0.01344   0.01387   0.99353
   D20       -3.12313   0.00082   0.00022   0.00273   0.00273  -3.12040
   D21       -1.04596  -0.00056   0.00060  -0.00677  -0.00630  -1.05226
   D22       -1.04698   0.00755   0.00000   0.00000   0.00000  -1.04697
   D23        1.13342   0.00097  -0.00041  -0.01071  -0.01114   1.12228
   D24       -3.07260  -0.00040  -0.00003  -0.02021  -0.02017  -3.09277
   D25       -3.12182   0.00454   0.00130  -0.01729  -0.01590  -3.13772
   D26       -0.94143  -0.00204   0.00089  -0.02800  -0.02704  -0.96847
   D27        1.13574  -0.00341   0.00127  -0.03750  -0.03607   1.09967
   D28        3.07388  -0.00182   0.00080  -0.04635  -0.04556   3.02833
   D29       -1.17375  -0.00066   0.00399  -0.04008  -0.03612  -1.20986
   D30        0.88214  -0.00014   0.01173  -0.04664  -0.03498   0.84716
   D31       -1.16998  -0.00434   0.00032  -0.01584  -0.01528  -1.18526
   D32        0.86558  -0.00319   0.00351  -0.00958  -0.00584   0.85973
   D33        2.92146  -0.00267   0.01125  -0.01614  -0.00470   2.91675
   D34        0.89389   0.00322   0.00039  -0.00983  -0.00960   0.88429
   D35        2.92944   0.00437   0.00358  -0.00356  -0.00016   2.92929
   D36       -1.29786   0.00489   0.01132  -0.01013   0.00098  -1.29688
   D37        0.96359  -0.00160  -0.00123  -0.02066  -0.02212   0.94148
   D38       -1.18248   0.00091   0.00530  -0.01996  -0.01476  -1.19725
   D39        3.02516  -0.00057  -0.00156  -0.02527  -0.02650   2.99865
   D40        2.07157  -0.00464  -0.00109  -0.01739  -0.01849   2.05307
   D41       -2.15123  -0.00420   0.01026  -0.04189  -0.03181  -2.18303
   D42       -0.00002  -0.00289   0.00000   0.00000   0.00000  -0.00002
   D43       -2.12050  -0.00056  -0.00327  -0.01949  -0.02267  -2.14317
   D44       -0.06011  -0.00012   0.00807  -0.04399  -0.03598  -0.09609
   D45        2.09110   0.00119  -0.00218  -0.00210  -0.00418   2.08692
   D46       -0.02163  -0.00008   0.00406  -0.01708  -0.01303  -0.03467
[...]
     8  C    1.533054   2.135222   2.453197   3.270304   2.876789
     9  H    2.177606   2.550140   2.686682   3.537926   3.880617
    10  O    2.376002   2.486933   3.622821   4.274546   3.427953
    11  H    2.378636   2.478773   3.742692   4.260813   2.943036
    12  C    2.504279   3.437079   3.031747   3.916730   2.450669
    13  H    3.221223   4.036537   3.994448   4.818191   2.653991
    14  O    3.568622   4.467649   3.709486   4.663285   3.711728
    15  H    3.455127   4.321178   3.277618   4.225161   4.022130
    16  C    2.540733   3.623531   2.679699   3.373816   1.523914
    17  H    2.482143   3.551060   2.037531   2.691567   2.180866
    18  O    3.963413   5.039530   4.002617   4.644469   2.368256
    19  H    4.364604   5.444519   4.326840   5.078419   3.178160
    20  C    3.503395   4.264358   3.678161   3.732369   1.522747
    21  H    3.449521   4.206563   3.213099   3.110662   2.143545
    22  H    3.847756   4.374345   4.198906   4.079320   2.142185
    23  O    4.720841   5.565599   4.853357   5.001871   2.424043
    24  H    4.733896   5.694086   4.766412   5.064179   2.500781
                    6          7          8          9         10
     6  H    0.000000
     7  O    2.095434   0.000000
     8  C    3.210793   2.364509   0.000000
     9  H    4.275153   3.333565   1.095351   0.000000
    10  O    3.383054   2.742920   1.405816   2.018325   0.000000
    11  H    2.772361   2.218294   1.918520   2.797760   0.971823
    12  C    2.647628   2.805341   1.547587   2.175750   2.462519
    13  H    2.377777   3.164410   2.167728   2.892104   2.465945
    14  O    3.935405   4.139494   2.494843   2.515175   3.473376
    15  H    4.468941   4.280337   2.606215   2.349516   3.805709
    16  C    2.150749   2.415498   2.501776   3.241202   3.509233
    17  H    3.073019   2.715266   2.794308   3.290598   4.033215
    18  O    2.600920   3.648615   3.755287   4.426203   4.631772
    19  H    3.363632   4.309547   3.887936   4.362821   4.824891
    20  C    2.153155   2.432806   4.283904   5.221595   4.880114
    21  H    3.052801   2.724765   4.444385   5.234500   5.266667
    22  H    2.531488   2.572878   4.773654   5.759374   5.136872
    23  O    2.610465   3.676786   5.231887   6.166499   5.803861
    24  H    2.703887   3.903135   5.038745   5.893361   5.738902
                   11         12         13         14         15
    11  H    0.000000
    12  C    2.727121   0.000000
    13  H    2.579154   1.094176   0.000000
    14  O    3.974254   1.420124   2.012327   0.000000
    15  H    4.369971   1.948577   2.816495   0.969695   0.000000
    16  C    3.435270   1.521890   2.142387   2.405018   2.643181
    17  H    4.060368   2.181020   3.066891   2.715015   2.550719
    18  O    4.524512   2.400211   2.609620   2.793884   3.210768
    19  H    4.897028   2.407170   2.648441   2.276544   2.723072
    20  C    4.314299   3.845068   4.087432   4.944665   5.141939
    21  H    4.829355   4.115645   4.610959   5.060497   5.051030
    22  H    4.422390   4.587009   4.731480   5.811745   6.026041
    23  O    5.246727   4.428431   4.477807   5.349080   5.670651
    24  H    5.317120   4.007841   4.087393   4.727636   5.064644
                   16         17         18         19         20
    16  C    0.000000
    17  H    1.088306   0.000000
    18  O    1.425576   2.059795   0.000000
    19  H    1.934969   2.407934   0.971465   0.000000
    20  C    2.548545   2.805887   2.926670   3.871939   0.000000
    21  H    2.715164   2.520196   3.217093   4.066553   1.103441
    22  H    3.468095   3.744595   3.948471   4.897645   1.093806
    23  O    3.102432   3.505020   2.786681   3.730689   1.404346
    24  H    2.676613   3.097978   2.001191   2.885341   1.929644
                   21         22         23         24
    21  H    0.000000
    22  H    1.774218   0.000000
    23  O    2.092339   2.023566   0.000000
    24  H    2.409106   2.817093   0.971458   0.000000
 Symmetry turned off by external request.
 Stoichiometry    C6H12O6
 Framework group  C1[X(C6H12O6)]
 Deg. of freedom    66
 Full point group                 C1      NOp   1
 Rotational constants (GHZ):      1.2685014      0.7853424      0.6288074

 **********************************************************************

            Population analysis using the SCF density.

 **********************************************************************

 Alpha  occ. eigenvalues --  -19.67822 -19.66808 -19.66075 -19.65194 -19.64677
 Alpha  occ. eigenvalues --  -19.62083 -10.66530 -10.61229 -10.60873 -10.60732
 Alpha  occ. eigenvalues --  -10.60058 -10.58885  -1.21616  -1.17595  -1.15945
 Alpha  occ. eigenvalues --   -1.15113  -1.13736  -1.12698  -0.89377  -0.87222
 Alpha  occ. eigenvalues --   -0.78510  -0.74978  -0.71765  -0.67279  -0.65807
 Alpha  occ. eigenvalues --   -0.62519  -0.60005  -0.58295  -0.58082  -0.56609
 Alpha  occ. eigenvalues --   -0.54779  -0.52569  -0.51788  -0.50547  -0.48613
 Alpha  occ. eigenvalues --   -0.48186  -0.47279  -0.44954  -0.44251  -0.43733
 Alpha  occ. eigenvalues --   -0.40779  -0.40485  -0.39319  -0.37950  -0.35936
 Alpha  occ. eigenvalues --   -0.35155  -0.33261  -0.32551
 Alpha virt. eigenvalues --    0.08453   0.09505   0.12665   0.13030   0.14182
 Alpha virt. eigenvalues --    0.16743   0.17191   0.17901   0.18051   0.20874
 Alpha virt. eigenvalues --    0.20909   0.21712   0.22674   0.23954   0.25507
 Alpha virt. eigenvalues --    0.26840   0.28718   0.30324   0.31192   0.32653
 Alpha virt. eigenvalues --    0.33832   0.35222   0.35895   0.39095   0.56675
 Alpha virt. eigenvalues --    0.58171   0.59672   0.60889   0.61430   0.63067
 Alpha virt. eigenvalues --    0.65296   0.66195   0.67986   0.68804   0.71129
 Alpha virt. eigenvalues --    0.74550   0.75299   0.77961   0.79776   0.82386
 Alpha virt. eigenvalues --    0.83521   0.85551   0.86500   0.86925   0.87911
 Alpha virt. eigenvalues --    0.90542   0.91837   0.93132   0.93400   0.93919
 Alpha virt. eigenvalues --    0.94834   0.95429   0.95941   0.96815   1.00143
 Alpha virt. eigenvalues --    1.02252   1.03405   1.03715   1.05763   1.07860
 Alpha virt. eigenvalues --    1.09395   1.13172   1.13982   1.14520   1.15379
 Alpha virt. eigenvalues --    1.17358   1.18365   1.22988   1.25892   1.27797
 Alpha virt. eigenvalues --    1.28704   1.31834   1.33907   1.37186   1.38023
 Alpha virt. eigenvalues --    1.41766   1.45757   1.46232   1.49316   1.53649
 Alpha virt. eigenvalues --    1.54826   1.58208   1.61995   1.64290   1.67735
 Alpha virt. eigenvalues --    1.68282   1.69829   1.71021   1.73147   1.74475
 Alpha virt. eigenvalues --    1.77772   1.79322   1.81744   1.84959   1.86741
 Alpha virt. eigenvalues --    1.87637   1.88490   1.92511   1.93441   1.95069
 Alpha virt. eigenvalues --    1.97124   1.98260   1.98752   2.01718   2.05110
 Alpha virt. eigenvalues --    2.06989   2.09121   2.10443   2.13521   2.16980
 Alpha virt. eigenvalues --    2.17413   2.18746   2.21562   2.24019   2.25795
 Alpha virt. eigenvalues --    2.30071   2.31774   2.33834   2.35601   2.42549
 Alpha virt. eigenvalues --    2.46183   2.47483   2.47936   2.51461   2.53424
 Alpha virt. eigenvalues --    2.54174   2.55334   2.56671   2.57599   2.60144
 Alpha virt. eigenvalues --    2.64523   2.66211   2.72020   2.73186   2.78564
 Alpha virt. eigenvalues --    2.82747   2.86837   2.90365   2.92103   2.93289
 Alpha virt. eigenvalues --    2.98126   3.01842   3.11053   3.12842   3.74949
 Alpha virt. eigenvalues --    3.82831   3.88703   3.97168   4.07043   4.10624
 Alpha virt. eigenvalues --    4.30444   4.42675   4.49503   4.59763   4.66751
 Alpha virt. eigenvalues --    4.87216
          Condensed to atoms (all electrons):
              1          2          3          4          5          6
     1  C    4.799148   0.405708   0.182735  -0.012001  -0.036063   0.002218
     2  H    0.405708   0.557439  -0.037850  -0.007100   0.005087  -0.000181
     3  O    0.182735  -0.037850   8.361258   0.239095   0.008199  -0.000231
     4  H   -0.012001  -0.007100   0.239095   0.335792  -0.001218   0.000050
     5  C   -0.036063   0.005087   0.008199  -0.001218   5.044174   0.378694
     6  H    0.002218  -0.000181  -0.000231   0.000050   0.378694   0.570249
     7  O    0.196246  -0.052576  -0.053579   0.002816   0.145983  -0.031649
     8  C    0.315244  -0.051589  -0.047196   0.006175  -0.015310  -0.000103
     9  H   -0.035036  -0.003606   0.003566  -0.000288   0.000357  -0.000040
    10  O   -0.038666   0.003712   0.001479  -0.000099   0.001760   0.000732
    11  H   -0.012141  -0.000883   0.000477  -0.000036   0.001113  -0.000834
    12  C   -0.034658   0.006150   0.006430  -0.000449  -0.040712  -0.006884
    13  H    0.003682  -0.000223  -0.000122   0.000013  -0.006102   0.006969
    14  O    0.002017  -0.000077  -0.000134   0.000008   0.003921   0.000039
    15  H    0.000015  -0.000021   0.000632  -0.000008   0.000096   0.000022
    16  C    0.001915  -0.000298  -0.034481   0.001290   0.305900  -0.056382
    17  H   -0.001508   0.000518   0.008128   0.000501  -0.033289   0.005045
    18  O   -0.000276   0.000006   0.000245  -0.000015  -0.042596   0.002884
    19  H   -0.000047   0.000001  -0.000010   0.000000   0.007137  -0.000167
    20  C   -0.000268  -0.000177  -0.000519   0.000032   0.334777  -0.051335
    21  H    0.000912   0.000027   0.001171   0.000719  -0.049157   0.006876
    22  H    0.000012  -0.000007   0.000013   0.000000  -0.037015  -0.005524
    23  O    0.000002   0.000001   0.000002   0.000001  -0.039809   0.007371
    24  H    0.000027   0.000000  -0.000004   0.000000  -0.008846  -0.000358
              7          8          9         10         11         12
     1  C    0.196246   0.315244  -0.035036  -0.038666  -0.012141  -0.034658
     2  H   -0.052576  -0.051589  -0.003606   0.003712  -0.000883   0.006150
     3  O   -0.053579  -0.047196   0.003566   0.001479   0.000477   0.006430
     4  H    0.002816   0.006175  -0.000288  -0.000099  -0.000036  -0.000449
     5  C    0.145983  -0.015310   0.000357   0.001760   0.001113  -0.040712
     6  H   -0.031649  -0.000103  -0.000040   0.000732  -0.000834  -0.006884
     7  O    8.456059  -0.045144   0.003846  -0.010164   0.023313  -0.013243
     8  C   -0.045144   5.039581   0.370958   0.242160  -0.035583   0.259303
     9  H    0.003846   0.370958   0.554214  -0.033474   0.006797  -0.052123
    10  O   -0.010164   0.242160  -0.033474   8.278476   0.243862  -0.047200
    11  H    0.023313  -0.035583   0.006797   0.243862   0.351110  -0.002762
    12  C   -0.013243   0.259303  -0.052123  -0.047200  -0.002762   5.033961
    13  H   -0.000029  -0.042379   0.001608   0.003470   0.000856   0.383204
    14  O    0.000022  -0.031824   0.001430   0.001783  -0.000074   0.215890
    15  H    0.000041  -0.005878   0.003460  -0.000009   0.000019  -0.029973
    16  C   -0.031698  -0.048711   0.004410   0.002579  -0.000344   0.322392
    17  H    0.000533  -0.003900  -0.000132  -0.000008   0.000006  -0.032688
    18  O    0.001398   0.004094  -0.000066  -0.000019  -0.000012  -0.031744
    19  H   -0.000095   0.000797  -0.000041  -0.000012   0.000003  -0.013456
    20  C   -0.033603   0.000151   0.000017   0.000007   0.000124   0.004189
    21  H    0.004256   0.000010  -0.000002   0.000000  -0.000003   0.000209
    22  H    0.002099   0.000012  -0.000001  -0.000001   0.000002  -0.000147
    23  O    0.001533   0.000001   0.000000   0.000000  -0.000001  -0.000012
    24  H   -0.000014  -0.000025   0.000000   0.000000   0.000000   0.000292
             13         14         15         16         17         18
     1  C    0.003682   0.002017   0.000015   0.001915  -0.001508  -0.000276
     2  H   -0.000223  -0.000077  -0.000021  -0.000298   0.000518   0.000006
     3  O   -0.000122  -0.000134   0.000632  -0.034481   0.008128   0.000245
     4  H    0.000013   0.000008  -0.000008   0.001290   0.000501  -0.000015
     5  C   -0.006102   0.003921   0.000096   0.305900  -0.033289  -0.042596
     6  H    0.006969   0.000039   0.000022  -0.056382   0.005045   0.002884
     7  O   -0.000029   0.000022   0.000041  -0.031698   0.000533   0.001398
     8  C   -0.042379  -0.031824  -0.005878  -0.048711  -0.003900   0.004094
     9  H    0.001608   0.001430   0.003460   0.004410  -0.000132  -0.000066
    10  O    0.003470   0.001783  -0.000009   0.002579  -0.000008  -0.000019
    11  H    0.000856  -0.000074   0.000019  -0.000344   0.000006  -0.000012
    12  C    0.383204   0.215890  -0.029973   0.322392  -0.032688  -0.031744
    13  H    0.533010  -0.036728   0.006627  -0.044852   0.004767  -0.000107
    14  O   -0.036728   8.299308   0.243106  -0.049805  -0.001987  -0.008049
    15  H    0.006627   0.243106   0.366242  -0.002816   0.003943  -0.000072
    16  C   -0.044852  -0.049805  -0.002816   5.094271   0.363614   0.174415
    17  H    0.004767  -0.001987   0.003943   0.363614   0.532882  -0.036417
    18  O   -0.000107  -0.008049  -0.000072   0.174415  -0.036417   8.379244
    19  H   -0.000613   0.025638  -0.000673  -0.030837  -0.000226   0.241798
    20  C   -0.000183  -0.000067  -0.000002  -0.032411  -0.007671   0.001419
    21  H   -0.000001   0.000000  -0.000001  -0.014627   0.004519   0.000301
    22  H    0.000003   0.000000   0.000000   0.005440  -0.000091  -0.000128
    23  O   -0.000020   0.000000   0.000000  -0.001226   0.000093  -0.010240
    24  H    0.000024   0.000003   0.000000   0.000199   0.000187   0.027484
             19         20         21         22         23         24
     1  C   -0.000047  -0.000268   0.000912   0.000012   0.000002   0.000027
     2  H    0.000001  -0.000177   0.000027  -0.000007   0.000001   0.000000
     3  O   -0.000010  -0.000519   0.001171   0.000013   0.000002  -0.000004
     4  H    0.000000   0.000032   0.000719   0.000000   0.000001   0.000000
     5  C    0.007137   0.334777  -0.049157  -0.037015  -0.039809  -0.008846
     6  H   -0.000167  -0.051335   0.006876  -0.005524   0.007371  -0.000358
     7  O   -0.000095  -0.033603   0.004256   0.002099   0.001533  -0.000014
     8  C    0.000797   0.000151   0.000010   0.000012   0.000001  -0.000025
     9  H   -0.000041   0.000017  -0.000002  -0.000001   0.000000   0.000000
    10  O   -0.000012   0.000007   0.000000  -0.000001   0.000000   0.000000
    11  H    0.000003   0.000124  -0.000003   0.000002  -0.000001   0.000000
    12  C   -0.013456   0.004189   0.000209  -0.000147  -0.000012   0.000292
    13  H   -0.000613  -0.000183  -0.000001   0.000003  -0.000020   0.000024
    14  O    0.025638  -0.000067   0.000000   0.000000   0.000000   0.000003
    15  H   -0.000673  -0.000002  -0.000001   0.000000   0.000000   0.000000
    16  C   -0.030837  -0.032411  -0.014627   0.005440  -0.001226   0.000199
    17  H   -0.000226  -0.007671   0.004519  -0.000091   0.000093   0.000187
    18  O    0.241798   0.001419   0.000301  -0.000128  -0.010240   0.027484
    19  H    0.336758  -0.000340  -0.000038   0.000015   0.000407  -0.000431
    20  C   -0.000340   4.850315   0.358524   0.386544   0.250029  -0.029555
    21  H   -0.000038   0.358524   0.648963  -0.043949  -0.036802  -0.002693
    22  H    0.000015   0.386544  -0.043949   0.552538  -0.037653   0.005350
    23  O    0.000407   0.250029  -0.036802  -0.037653   8.287601   0.245398
    24  H   -0.000431  -0.029555  -0.002693   0.005350   0.245398   0.316860
 Mulliken atomic charges:
              1
     1  C    0.260782
     2  H    0.175938
     3  O   -0.639304
     4  H    0.434724
     5  C    0.072918
     6  H    0.172540
     7  O   -0.566353
     8  C    0.089158
     9  H    0.174146
    10  O   -0.650367
    11  H    0.424993
    12  C    0.074029
    13  H    0.187129
    14  O   -0.664422
    15  H    0.415253
    16  C    0.072062
    17  H    0.193183
    18  O   -0.703544
    19  H    0.434432
    20  C   -0.029998
    21  H    0.120786
    22  H    0.172487
    23  O   -0.666676
    24  H    0.446102
 Sum of Mulliken atomic charges =   0.00000
 Mulliken charges with hydrogens summed into heavy atoms:
              1
     1  C    0.436720
     3  O   -0.204580
     5  C    0.245459
     7  O   -0.566353
     8  C    0.263304
    10  O   -0.225374
    12  C    0.261159
    14  O   -0.249170
    16  C    0.265245
    18  O   -0.269112
    20  C    0.263275
    23  O   -0.220574
 Sum of Mulliken charges with hydrogens summed into heavy atoms =   0.00000
 Electronic spatial extent (au):  <R**2>=         480615.9522
 Charge=              0.0000 electrons
 Dipole moment (field-independent basis, Debye):
    X=              0.7349    Y=              2.2043    Z=             -2.5831  Tot=              3.4745
 Quadrupole moment (field-independent basis, Debye-Ang):
   XX=            -54.3796   YY=            -71.6217   ZZ=             92.9562
   XY=             47.9824   XZ=            -70.5360   YZ=            -67.3902
 Traceless Quadrupole moment (field-independent basis, Debye-Ang):
   XX=            -43.3645   YY=            -60.6067   ZZ=            103.9712
   XY=             47.9824   XZ=            -70.5360   YZ=            -67.3902
 Octapole moment (field-independent basis, Debye-Ang**2):
  XXX=          -4326.9200  YYY=            212.4127  ZZZ=          -1206.6717  XYY=          -1495.0329
  XXY=           1146.3727  XXZ=            796.0034  XZZ=           2268.8850  YZZ=           2139.3700
  YYZ=           2230.4731  XYZ=          -1476.9605
 Hexadecapole moment (field-independent basis, Debye-Ang**3):
 XXXX=        -193741.5566 YYYY=           -777.8284 ZZZZ=         -79189.9598 XXXY=          29110.7173
 XXXZ=         117513.2451 YYYX=           4455.0441 YYYZ=          -6676.7639 ZZZX=         -29595.1284
 ZZZY=         -70408.4924 XXYY=         -31595.6422 XXZZ=         -26539.6715 YYZZ=         -69732.1629
 XXYZ=         -35524.5135 YYXZ=          46623.7581 ZZXY=          47097.1139
 N-N= 8.474435677666D+02 E-N=-3.305495078234D+03  KE= 6.815550517426D+02
 1\1\GINC-RR39\FOpt\RM062X\6-31G(d)\C6H12O6\HMAYES\12-Jun-2012\0\\# opt
 (modredundant) m062x/6-31G(d) nosymm\\Starting Geometry for Conformati
 onal Analysis\\0,1\C,21.2205481972,-1.1119727373,-32.752253645\H,21.39
 59855427,-1.6066318167,-33.715374945\O,20.9476602083,0.2365277808,-32.
 9547615635\H,20.261805626,0.3002191083,-33.6359049156\C,19.7763767277,
 -1.5399758835,-30.8173063029\H,19.9305346881,-2.4118395938,-30.1699896
 294\O,20.1656964335,-1.905201688,-32.1896083335\C,22.4478130357,-1.374
 3265727,-31.8717734543\H,23.314477625,-0.8116989594,-32.2352781933\O,2
 2.7705197141,-2.7383860831,-31.9791078703\H,21.929772002,-3.2211477565
 ,-31.9118433763\C,22.1206100129,-0.9454262391,-30.4212531284\H,22.1968
 568101,-1.8174064776,-29.764702522\O,23.0120629845,0.0187553589,-29.88
 04964066\H,23.0624295071,0.758336665,-30.5056297127\C,20.6964047677,-0
 .411734349,-30.3668258329\H,20.568845097,0.4861894569,-30.9683829528\O
 ,20.3604454985,-0.1230426866,-29.0118145735\H,21.1330746438,0.32771302
 26,-28.632858314\C,18.3017958358,-1.1600214702,-30.8151542025\H,18.184
 5259247,-0.21908278,-31.3794797928\H,17.7371083277,-1.9355209506,-31.3
 406447169\O,17.7886578853,-1.0730428512,-29.5108105108\H,18.3984249046
 ,-0.5168214971,-28.998431105\\Version=EM64L-G09RevB.01\HF=-686.8677418
 \RMSD=3.773e-09\RMSF=6.909e-03\Dipole=0.2891498,0.8672556,-1.0162877\Q
 uadrupole=-32.2404804,-45.0595917,77.3000721,35.6737421,-52.4417776,-5
 0.1030003\PG=C01 [X(C6H12O6)]\\@


 Some scientists claim that hydrogen, because it is so
 plentiful, is the basic building block of the universe. 
 I dispute that. I say that stupidity is far more
 abundant than hydrogen, and THAT is the basic building 
 block of the universe.
                   --Frank Zappa
 Job cpu time:  0 days  3 hours  0 minutes 16.6 seconds.
 File lengths (MBytes):  RWF=     27 Int=      0 D2E=      0 Chk=      4 Scr=      1
 Normal termination of Gaussian 09 at Tue Jun 12 20:32:46 2012.
