 Entering Gaussian System, Link 0=g09
 Initial command:
 /projects/nrel/apps/gaussian/g09/B.01/g09/l1.exe /scratch/hmayes/1C400/Gau-7729.inp -scrdir=/scratch/hmayes/1C400/
 Default is to use a total of   8 processors:
                                8 via shared-memory
                                1 via Linda
 Entering Link 1 = /projects/nrel/apps/gaussian/g09/B.01/g09/l1.exe PID=      7730.
  
 Copyright (c) 1988,1990,1992,1993,1995,1998,2003,2009,2010,
            Gaussian, Inc.  All Rights Reserved.
  
 This is part of the Gaussian(R) 09 program.  It is based on
 the Gaussian(R) 03 system (copyright 2003, Gaussian, Inc.),
 the Gaussian(R) 98 system (copyright 1998, Gaussian, Inc.),
 the Gaussian(R) 94 system (copyright 1995, Gaussian, Inc.),
 the Gaussian 92(TM) system (copyright 1992, Gaussian, Inc.),
 the Gaussian 90(TM) system (copyright 1990, Gaussian, Inc.),
 the Gaussian 88(TM) system (copyright 1988, Gaussian, Inc.),
 the Gaussian 86(TM) system (copyright 1986, Carnegie Mellon
 University), and the Gaussian 82(TM) system (copyright 1983,
 Carnegie Mellon University). Gaussian is a federally registered
 trademark of Gaussian, Inc.
  
 This software contains proprietary and confidential information,
 including trade secrets, belonging to Gaussian, Inc.
  
 This software is provided under written license and may be
 used, copied, transmitted, or stored only in accord with that
 written license.
  
 The following legend is applicable only to US Government
 contracts under FAR:
  
                    RESTRICTED RIGHTS LEGEND
  
 Use, reproduction and disclosure by the US Government is
 subject to restrictions as set forth in subparagraphs (a)
 and (c) of the Commercial Computer Software - Restricted
 Rights clause in FAR 52.227-19.
  
 Gaussian, Inc.
 340 Quinnipiac St., Bldg. 40, Wallingford CT 06492
  
  
 ---------------------------------------------------------------
 Warning -- This program may not be used in any manner that
 competes with the business of Gaussian, Inc. or will provide
 assistance to any competitor of Gaussian, Inc.  The licensee
 of this program is prohibited from giving any competitor of
 Gaussian, Inc. access to this program.  By using this program,
 the user acknowledges that Gaussian, Inc. is engaged in the
 business of creating and licensing software in the field of
 computational chemistry and represents and warrants to the
 licensee that it is not a competitor of Gaussian, Inc. and that
 it will not use this program in any manner prohibited above.
 ---------------------------------------------------------------
  

 Cite this work as:
 Gaussian 09, Revision B.01,
 M. J. Frisch, G. W. Trucks, H. B. Schlegel, G. E. Scuseria, 
 M. A. Robb, J. R. Cheeseman, G. Scalmani, V. Barone, B. Mennucci, 
 G. A. Petersson, H. Nakatsuji, M. Caricato, X. Li, H. P. Hratchian, 
 A. F. Izmaylov, J. Bloino, G. Zheng, J. L. Sonnenberg, M. Hada, 
 M. Ehara, K. Toyota, R. Fukuda, J. Hasegawa, M. Ishida, T. Nakajima, 
 Y. Honda, O. Kitao, H. Nakai, T. Vreven, J. A. Montgomery, Jr., 
 J. E. Peralta, F. Ogliaro, M. Bearpark, J. J. Heyd, E. Brothers, 
 K. N. Kudin, V. N. Staroverov, T. Keith, R. Kobayashi, J. Normand, 
 K. Raghavachari, A. Rendell, J. C. Burant, S. S. Iyengar, J. Tomasi, 
 M. Cossi, N. Rega, J. M. Millam, M. Klene, J. E. Knox, J. B. Cross, 
 V. Bakken, C. Adamo, J. Jaramillo, R. Gomperts, R. E. Stratmann, 
 O. Yazyev, A. J. Austin, R. Cammi, C. Pomelli, J. W. Ochterski, 
 R. L. Martin, K. Morokuma, V. G. Zakrzewski, G. A. Voth, 
 P. Salvador, J. J. Dannenberg, S. Dapprich, A. D. Daniels, 
 O. Farkas, J. B. Foresman, J. V. Ortiz, J. Cioslowski, 
 and D. J. Fox, Gaussian, Inc., Wallingford CT, 2010.
 
 ******************************************
 Gaussian 09:  EM64L-G09RevB.01 12-Aug-2010
                 5-Jun-2012 
 ******************************************
 %chk=/home/hmayes/gaussian/pucker/chks/1C400.chk
 %mem=10GB
 %nproc=8
 Will use up to    8 processors via shared memory.
 Default route:  MaxDisk=16GB
 -------------------------
 # opt freq m062x/6-31G(d)
 -------------------------
 1/14=-1,18=20,19=15,26=3,38=1/1,3;
 2/9=110,12=2,17=6,18=5,40=1/2;
 3/5=1,6=6,7=1,11=2,16=1,25=1,30=1,71=1,74=-55/1,2,3;
 4//1;
 5/5=2,38=5/2;
 6/7=2,8=2,9=2,10=2,28=1/1;
 7//1,2,3,16;
 1/14=-1,18=20,19=15/3(2);
 2/9=110/2;
 99//99;
 2/9=110/2;
 3/5=1,6=6,7=1,11=2,16=1,25=1,30=1,71=1,74=-55/1,2,3;
 4/5=5,16=3/1;
 5/5=2,38=5/2;
 7//1,2,3,16;
 1/14=-1,18=20,19=15/3(-5);
 2/9=110/2;
 6/7=2,8=2,9=2,10=2,19=2,28=1/1;
 99/9=1/99;
 ---------------------------------------
 from http://6ring.bio.nrc.ca/suppl.html
 ---------------------------------------
 Symbolic Z-matrix:
 Charge =  0 Multiplicity = 1
 C                     1.447     0.       -0.256 
 C                     0.724     1.253     0.256 
 C                    -0.724     1.253    -0.256 
 C                    -1.447     0.        0.256 
 C                    -0.724    -1.253    -0.256 
 O                     0.724    -1.253     0.256 
 H                     2.4806    0.        0.1086 
 H                     1.4462    0.       -1.352 
 H                     0.7241    1.2527    1.352 
 H                     1.2407    2.1479   -0.1092 
 H                    -0.7241    1.2527   -1.352 
 H                    -1.2407    2.1479    0.1092 
 H                    -2.4806    0.       -0.1086 
 H                    -1.4462    0.        1.352 
 H                    -0.7241   -1.2527   -1.352 
 H                    -1.2407   -2.1479    0.1092 
 

 GradGradGradGradGradGradGradGradGradGradGradGradGradGradGradGradGradGrad
 Berny optimization.
 Initialization pass.
                           ----------------------------
                           !    Initial Parameters    !
                           ! (Angstroms and Degrees)  !
 --------------------------                            --------------------------
 ! Name  Definition              Value          Derivative Info.                !
 --------------------------------------------------------------------------------
 ! R1    R(1,2)                  1.5346         estimate D2E/DX2                !
 ! R2    R(1,6)                  1.5346         estimate D2E/DX2                !
 ! R3    R(1,7)                  1.096          estimate D2E/DX2                !
 ! R4    R(1,8)                  1.096          estimate D2E/DX2                !
 ! R5    R(2,3)                  1.5359         estimate D2E/DX2                !
 ! R6    R(2,9)                  1.096          estimate D2E/DX2                !
 ! R7    R(2,10)                 1.096          estimate D2E/DX2                !
 ! R8    R(3,4)                  1.5346         estimate D2E/DX2                !
 ! R9    R(3,11)                 1.096          estimate D2E/DX2                !
 ! R10   R(3,12)                 1.096          estimate D2E/DX2                !
 ! R11   R(4,5)                  1.5346         estimate D2E/DX2                !
 ! R12   R(4,13)                 1.096          estimate D2E/DX2                !
 ! R13   R(4,14)                 1.096          estimate D2E/DX2                !
 ! R14   R(5,6)                  1.5359         estimate D2E/DX2                !
 ! R15   R(5,15)                 1.096          estimate D2E/DX2                !
 ! R16   R(5,16)                 1.096          estimate D2E/DX2                !
 ! A1    A(2,1,6)              109.4757         estimate D2E/DX2                !
 ! A2    A(2,1,7)              109.4705         estimate D2E/DX2                !
 ! A3    A(2,1,8)              109.4693         estimate D2E/DX2                !
 ! A4    A(6,1,7)              109.4705         estimate D2E/DX2                !
 ! A5    A(6,1,8)              109.4693         estimate D2E/DX2                !
 ! A6    A(7,1,8)              109.472          estimate D2E/DX2                !
 ! A7    A(1,2,3)              109.449          estimate D2E/DX2                !
 ! A8    A(1,2,9)              109.474          estimate D2E/DX2                !
 ! A9    A(1,2,10)             109.476          estimate D2E/DX2                !
 ! A10   A(3,2,9)              109.4784         estimate D2E/DX2                !
 ! A11   A(3,2,10)             109.475          estimate D2E/DX2                !
 ! A12   A(9,2,10)             109.475          estimate D2E/DX2                !
 ! A13   A(2,3,4)              109.449          estimate D2E/DX2                !
 ! A14   A(2,3,11)             109.4784         estimate D2E/DX2                !
 ! A15   A(2,3,12)             109.475          estimate D2E/DX2                !
 ! A16   A(4,3,11)             109.474          estimate D2E/DX2                !
 ! A17   A(4,3,12)             109.476          estimate D2E/DX2                !
 ! A18   A(11,3,12)            109.475          estimate D2E/DX2                !
 ! A19   A(3,4,5)              109.4757         estimate D2E/DX2                !
 ! A20   A(3,4,13)             109.4705         estimate D2E/DX2                !
 ! A21   A(3,4,14)             109.4693         estimate D2E/DX2                !
 ! A22   A(5,4,13)             109.4705         estimate D2E/DX2                !
 ! A23   A(5,4,14)             109.4693         estimate D2E/DX2                !
 ! A24   A(13,4,14)            109.472          estimate D2E/DX2                !
 ! A25   A(4,5,6)              109.449          estimate D2E/DX2                !
 ! A26   A(4,5,15)             109.474          estimate D2E/DX2                !
 ! A27   A(4,5,16)             109.476          estimate D2E/DX2                !
 ! A28   A(6,5,15)             109.4784         estimate D2E/DX2                !
 ! A29   A(6,5,16)             109.475          estimate D2E/DX2                !
 ! A30   A(15,5,16)            109.475          estimate D2E/DX2                !
 ! A31   A(1,6,5)              109.449          estimate D2E/DX2                !
 ! D1    D(6,1,2,3)            -60.038          estimate D2E/DX2                !
 ! D2    D(6,1,2,9)             59.9588         estimate D2E/DX2                !
 ! D3    D(6,1,2,10)           179.968          estimate D2E/DX2                !
 ! D4    D(7,1,2,3)            179.9605         estimate D2E/DX2                !
 ! D5    D(7,1,2,9)            -60.0426         estimate D2E/DX2                !
 ! D6    D(7,1,2,10)            59.9666         estimate D2E/DX2                !
 ! D7    D(8,1,2,3)             59.9612         estimate D2E/DX2                !
 ! D8    D(8,1,2,9)            179.9581         estimate D2E/DX2                !
 ! D9    D(8,1,2,10)           -60.0327         estimate D2E/DX2                !
 ! D10   D(2,1,6,5)             60.038          estimate D2E/DX2                !
 ! D11   D(7,1,6,5)           -179.9605         estimate D2E/DX2                !
 ! D12   D(8,1,6,5)            -59.9612         estimate D2E/DX2                !
 ! D13   D(1,2,3,4)             60.0216         estimate D2E/DX2                !
 ! D14   D(1,2,3,11)           -59.9725         estimate D2E/DX2                !
 ! D15   D(1,2,3,12)          -179.9838         estimate D2E/DX2                !
 ! D16   D(9,2,3,4)            -59.9725         estimate D2E/DX2                !
 ! D17   D(9,2,3,11)          -179.9667         estimate D2E/DX2                !
 ! D18   D(9,2,3,12)            60.022          estimate D2E/DX2                !
 ! D19   D(10,2,3,4)          -179.9838         estimate D2E/DX2                !
 ! D20   D(10,2,3,11)           60.022          estimate D2E/DX2                !
 ! D21   D(10,2,3,12)          -59.9893         estimate D2E/DX2                !
 ! D22   D(2,3,4,5)            -60.038          estimate D2E/DX2                !
 ! D23   D(2,3,4,13)           179.9605         estimate D2E/DX2                !
 ! D24   D(2,3,4,14)            59.9612         estimate D2E/DX2                !
 ! D25   D(11,3,4,5)            59.9588         estimate D2E/DX2                !
 ! D26   D(11,3,4,13)          -60.0426         estimate D2E/DX2                !
 ! D27   D(11,3,4,14)          179.9581         estimate D2E/DX2                !
 ! D28   D(12,3,4,5)           179.968          estimate D2E/DX2                !
 ! D29   D(12,3,4,13)           59.9666         estimate D2E/DX2                !
 ! D30   D(12,3,4,14)          -60.0327         estimate D2E/DX2                !
 ! D31   D(3,4,5,6)             60.038          estimate D2E/DX2                !
 ! D32   D(3,4,5,15)           -59.9588         estimate D2E/DX2                !
 ! D33   D(3,4,5,16)          -179.968          estimate D2E/DX2                !
 ! D34   D(13,4,5,6)          -179.9605         estimate D2E/DX2                !
 ! D35   D(13,4,5,15)           60.0426         estimate D2E/DX2                !
 ! D36   D(13,4,5,16)          -59.9666         estimate D2E/DX2                !
 ! D37   D(14,4,5,6)           -59.9612         estimate D2E/DX2                !
 ! D38   D(14,4,5,15)         -179.9581         estimate D2E/DX2                !
 ! D39   D(14,4,5,16)           60.0327         estimate D2E/DX2                !
 ! D40   D(4,5,6,1)            -60.0216         estimate D2E/DX2                !
 ! D41   D(15,5,6,1)            59.9725         estimate D2E/DX2                !
 ! D42   D(16,5,6,1)           179.9838         estimate D2E/DX2                !
 --------------------------------------------------------------------------------
 Trust Radius=3.00D-01 FncErr=1.00D-07 GrdErr=1.00D-06
 Number of steps in this run=     99 maximum allowed number of steps=    100.
 GradGradGradGradGradGradGradGradGradGradGradGradGradGradGradGradGradGrad

                          Input orientation:                          
 ---------------------------------------------------------------------
 Center     Atomic      Atomic             Coordinates (Angstroms)
 Number     Number       Type             X           Y           Z
 ---------------------------------------------------------------------
      1          6           0        1.447000    0.000000   -0.256000
      2          6           0        0.724000    1.253000    0.256000
      3          6           0       -0.724000    1.253000   -0.256000
      4          6           0       -1.447000    0.000000    0.256000
      5          6           0       -0.724000   -1.253000   -0.256000
      6          8           0        0.724000   -1.253000    0.256000
      7          1           0        2.480600    0.000000    0.108600
      8          1           0        1.446200    0.000000   -1.352000
      9          1           0        0.724100    1.252700    1.352000
     10          1           0        1.240700    2.147900   -0.109200
     11          1           0       -0.724100    1.252700   -1.352000
     12          1           0       -1.240700    2.147900    0.109200
     13          1           0       -2.480600    0.000000   -0.108600
     14          1           0       -1.446200    0.000000    1.352000
     15          1           0       -0.724100   -1.252700   -1.352000
     16          1           0       -1.240700   -2.147900    0.109200
 ---------------------------------------------------------------------
                    Distance matrix (angstroms):
                    1          2          3          4          5
     1  C    0.000000
     2  C    1.534562   0.000000
     3  C    2.506641   1.535854   0.000000
     4  C    2.938942   2.506641   1.534562   0.000000
     5  C    2.506641   2.939198   2.506000   1.534562   0.000000
     6  O    1.534562   2.506000   2.939198   2.506641   1.535854
     7  H    1.096021   2.162725   3.460116   3.930365   3.460116
     8  H    1.096000   2.162694   2.735140   3.310026   2.735140
     9  H    2.162754   1.096000   2.163945   2.735717   3.310769
    10  H    2.162772   1.095991   2.163895   3.459852   3.930358
    11  H    2.735717   2.163945   1.096000   2.162754   2.734913
    12  H    3.459852   2.163895   1.095991   2.162772   3.459259
    13  H    3.930365   3.460116   2.162725   1.096021   2.162725
    14  H    3.310026   2.735140   2.162694   1.096000   2.162694
    15  H    2.735717   3.310769   2.734913   2.162754   1.096000
    16  H    3.459852   3.930358   3.459259   2.162772   1.095991
                    6          7          8          9         10
     6  O    0.000000
     7  H    2.162725   0.000000
     8  H    2.162694   1.789787   0.000000
     9  H    2.734913   2.490099   3.066317   0.000000
    10  H    3.459259   2.489631   2.490031   1.789794   0.000000
    11  H    3.310769   3.738009   2.505885   3.067393   2.491260
    12  H    3.930358   4.296690   3.737380   2.491260   2.490993
    13  H    3.460116   4.965952   4.118956   3.738009   4.296690
    14  H    2.735140   4.118956   3.959494   2.505885   3.737380
    15  H    2.163945   3.738009   2.505885   3.960546   4.119353
    16  H    2.163895   4.296690   3.737380   4.119353   4.965777
                   11         12         13         14         15
    11  H    0.000000
    12  H    1.789794   0.000000
    13  H    2.490099   2.489631   0.000000
    14  H    3.066317   2.490031   1.789787   0.000000
    15  H    2.505400   3.737119   2.490099   3.066317   0.000000
    16  H    3.737119   4.295800   2.489631   2.490031   1.789794
                   16
    16  H    0.000000
 Stoichiometry    C5H10O
 Framework group  C1[X(C5H10O)]
 Deg. of freedom    42
 Full point group                 C1      NOp   1
 Largest Abelian subgroup         C1      NOp   1
 Largest concise Abelian subgroup C1      NOp   1
                         Standard orientation:                         
 ---------------------------------------------------------------------
 Center     Atomic      Atomic             Coordinates (Angstroms)
 Number     Number       Type             X           Y           Z
 ---------------------------------------------------------------------
      1          6           0       -1.256045   -0.744903    0.225551
      2          6           0       -1.250757    0.711913   -0.256675
      3          6           0        0.006069    1.420356    0.269959
      4          6           0        1.255866    0.702489   -0.256878
      5          6           0        1.250578   -0.754327    0.225349
      6          8           0       -0.006249   -1.462770   -0.301285
      7          1           0       -2.153184   -1.250616   -0.149495
      8          1           0       -1.255347   -0.766981    1.321329
      9          1           0       -1.250699    0.734079   -1.352451
     10          1           0       -2.143655    1.224464    0.119118
     11          1           0        0.006309    1.397669    1.365724
     12          1           0        0.010132    2.460976   -0.073973
     13          1           0        2.153004    1.208202    0.118169
     14          1           0        1.255168    0.724567   -1.352655
     15          1           0        1.250520   -0.776492    1.321125
     16          1           0        2.143476   -1.266878   -0.150444
 ---------------------------------------------------------------------
 Rotational constants (GHZ):      4.4120020      4.4097203      2.5186865
 Standard basis: 6-31G(d) (6D, 7F)
 There are   110 symmetry adapted basis functions of A   symmetry.
 Integral buffers will be    131072 words long.
 Raffenetti 2 integral format.
 Two-electron integral symmetry is turned on.
   110 basis functions,   208 primitive gaussians,   110 cartesian basis functions
    24 alpha electrons       24 beta electrons
       nuclear repulsion energy       255.0739708236 Hartrees.
 NAtoms=   16 NActive=   16 NUniq=   16 SFac= 1.00D+00 NAtFMM=   50 NAOKFM=F Big=F
 One-electron integrals computed using PRISM.
 NBasis=   110 RedAO= T  NBF=   110
 NBsUse=   110 1.00D-06 NBFU=   110
 Harris functional with IExCor= 1009 diagonalized for initial guess.
 ExpMin= 1.61D-01 ExpMax= 5.48D+03 ExpMxC= 8.25D+02 IAcc=1 IRadAn=         1 AccDes= 0.00D+00
 HarFok:  IExCor= 1009 AccDes= 0.00D+00 IRadAn=         1 IDoV= 1
 ScaDFX=  1.000000  1.000000  1.000000  1.000000
 FoFCou: FMM=F IPFlag=           0 FMFlag=      100000 FMFlg1=           0
         NFxFlg=           0 DoJE=T BraDBF=F KetDBF=T FulRan=T
         Omega=  0.000000  0.000000  1.000000  0.000000  0.000000 ICntrl=     500 IOpCl=  0
         NMat0=    1 NMatS0=    1 NMatT0=    0 NMatD0=    1 NMtDS0=    0 NMtDT0=    0
         I1Cent=           4 NGrid=           0.
 Petite list used in FoFCou.
 Initial guess orbital symmetries:
       Occupied  (A) (A) (A) (A) (A) (A) (A) (A) (A) (A) (A) (A)
                 (A) (A) (A) (A) (A) (A) (A) (A) (A) (A) (A) (A)
       Virtual   (A) (A) (A) (A) (A) (A) (A) (A) (A) (A) (A) (A)
                 (A) (A) (A) (A) (A) (A) (A) (A) (A) (A) (A) (A)
                 (A) (A) (A) (A) (A) (A) (A) (A) (A) (A) (A) (A)
                 (A) (A) (A) (A) (A) (A) (A) (A) (A) (A) (A) (A)
                 (A) (A) (A) (A) (A) (A) (A) (A) (A) (A) (A) (A)
                 (A) (A) (A) (A) (A) (A) (A) (A) (A) (A) (A) (A)
                 (A) (A) (A) (A) (A) (A) (A) (A) (A) (A) (A) (A)
                 (A) (A)
 The electronic state of the initial guess is 1-A.
 Requested convergence on RMS density matrix=1.00D-08 within 128 cycles.
 Requested convergence on MAX density matrix=1.00D-06.
 Requested convergence on             energy=1.00D-06.
 No special actions if energy rises.
 Keep R1 ints in memory in canonical form, NReq=19758699.
 Integral accuracy reduced to 1.0D-05 until final iterations.
 Initial convergence to 1.0D-05 achieved.  Increase integral accuracy.
 SCF Done:  E(RM062X) =  -271.620431639     A.U. after   15 cycles
             Convg  =    0.3314D-08             -V/T =  2.0101

 **********************************************************************

            Population analysis using the SCF density.

 **********************************************************************

 Orbital symmetries:
       Occupied  (A) (A) (A) (A) (A) (A) (A) (A) (A) (A) (A) (A)
                 (A) (A) (A) (A) (A) (A) (A) (A) (A) (A) (A) (A)
       Virtual   (A) (A) (A) (A) (A) (A) (A) (A) (A) (A) (A) (A)
                 (A) (A) (A) (A) (A) (A) (A) (A) (A) (A) (A) (A)
                 (A) (A) (A) (A) (A) (A) (A) (A) (A) (A) (A) (A)
                 (A) (A) (A) (A) (A) (A) (A) (A) (A) (A) (A) (A)
                 (A) (A) (A) (A) (A) (A) (A) (A) (A) (A) (A) (A)
                 (A) (A) (A) (A) (A) (A) (A) (A) (A) (A) (A) (A)
                 (A) (A) (A) (A) (A) (A) (A) (A) (A) (A) (A) (A)
                 (A) (A)
 The electronic state is 1-A.
 Alpha  occ. eigenvalues --  -19.63111 -10.59028 -10.59016 -10.54218 -10.54106
 Alpha  occ. eigenvalues --  -10.54099  -1.08641  -0.89547  -0.84713  -0.73352
 Alpha  occ. eigenvalues --   -0.70081  -0.64288  -0.55239  -0.52346  -0.51711
 Alpha  occ. eigenvalues --   -0.49829  -0.46895  -0.44704  -0.42628  -0.41515
 Alpha  occ. eigenvalues --   -0.39882  -0.37289  -0.35677  -0.31236
 Alpha virt. eigenvalues --    0.12996   0.14073   0.16015   0.17585   0.18787
 Alpha virt. eigenvalues --    0.20496   0.21038   0.21506   0.21993   0.23524
 Alpha virt. eigenvalues --    0.24224   0.27151   0.27178   0.28480   0.31161
 Alpha virt. eigenvalues --    0.32049   0.56852   0.57477   0.58452   0.59113
 Alpha virt. eigenvalues --    0.60172   0.61784   0.62893   0.69780   0.70013
 Alpha virt. eigenvalues --    0.72831   0.76351   0.78651   0.86638   0.88990
 Alpha virt. eigenvalues --    0.91149   0.91736   0.92566   0.93346   0.95065
 Alpha virt. eigenvalues --    0.96281   0.99751   1.01607   1.02565   1.03130
 Alpha virt. eigenvalues --    1.04153   1.06892   1.14128   1.24639   1.34905
 Alpha virt. eigenvalues --    1.38454   1.41920   1.43827   1.48727   1.54823
 Alpha virt. eigenvalues --    1.66055   1.68947   1.75061   1.76707   1.82903
 Alpha virt. eigenvalues --    1.83273   1.91231   1.93771   1.97112   1.98311
 Alpha virt. eigenvalues --    2.05043   2.05117   2.08749   2.09479   2.11333
 Alpha virt. eigenvalues --    2.18508   2.26738   2.34379   2.40031   2.40867
 Alpha virt. eigenvalues --    2.42594   2.43523   2.44572   2.51957   2.61655
 Alpha virt. eigenvalues --    2.64246   2.68214   2.76054   2.76565   2.92174
 Alpha virt. eigenvalues --    3.87835   4.20129   4.25601   4.41579   4.57114
 Alpha virt. eigenvalues --    4.57808
          Condensed to atoms (all electrons):
              1          2          3          4          5          6
     1  C    4.879996   0.349837  -0.045494  -0.014289  -0.026752   0.230264
     2  C    0.349837   5.121011   0.364828  -0.048310  -0.014326  -0.041332
     3  C   -0.045494   0.364828   5.078073   0.364896  -0.045562  -0.008532
     4  C   -0.014289  -0.048310   0.364896   5.120641   0.349850  -0.041232
     5  C   -0.026752  -0.014326  -0.045562   0.349850   4.880629   0.230262
     6  O    0.230264  -0.041332  -0.008532  -0.041232   0.230262   8.268814
     7  H    0.386398  -0.040101   0.004756  -0.000140   0.003464  -0.023970
     8  H    0.368401  -0.053309  -0.009241  -0.000279  -0.007216  -0.032185
     9  H   -0.034748   0.379576  -0.041486  -0.004708  -0.000695   0.000924
    10  H   -0.030303   0.367237  -0.038418   0.005388   0.000029   0.002711
    11  H   -0.004904  -0.042053   0.380856  -0.042172  -0.004924  -0.000509
    12  H    0.004632  -0.036437   0.387700  -0.036517   0.004649  -0.000099
    13  H    0.000027   0.005397  -0.038521   0.367312  -0.030333   0.002706
    14  H   -0.000697  -0.004728  -0.041577   0.379631  -0.034749   0.000918
    15  H   -0.007180  -0.000282  -0.009234  -0.053255   0.368335  -0.032084
    16  H    0.003453  -0.000139   0.004760  -0.040056   0.386355  -0.023881
              7          8          9         10         11         12
     1  C    0.386398   0.368401  -0.034748  -0.030303  -0.004904   0.004632
     2  C   -0.040101  -0.053309   0.379576   0.367237  -0.042053  -0.036437
     3  C    0.004756  -0.009241  -0.041486  -0.038418   0.380856   0.387700
     4  C   -0.000140  -0.000279  -0.004708   0.005388  -0.042172  -0.036517
     5  C    0.003464  -0.007216  -0.000695   0.000029  -0.004924   0.004649
     6  O   -0.023970  -0.032185   0.000924   0.002711  -0.000509  -0.000099
     7  H    0.538979  -0.035820  -0.004388  -0.000849  -0.000044  -0.000147
     8  H   -0.035820   0.605204   0.005545   0.000319   0.006044  -0.000042
     9  H   -0.004388   0.005545   0.553721  -0.026742   0.005178  -0.002762
    10  H   -0.000849   0.000319  -0.026742   0.574257  -0.002979  -0.003875
    11  H   -0.000044   0.006044   0.005178  -0.002979   0.580358  -0.027966
    12  H   -0.000147  -0.000042  -0.002762  -0.003875  -0.027966   0.559207
    13  H    0.000013   0.000024   0.000005  -0.000106  -0.002996  -0.003897
    14  H   -0.000043   0.000246   0.005535   0.000006   0.005200  -0.002780
    15  H   -0.000106   0.008574   0.000245   0.000025   0.006053  -0.000043
    16  H   -0.000070  -0.000106  -0.000043   0.000013  -0.000043  -0.000148
             13         14         15         16
     1  C    0.000027  -0.000697  -0.007180   0.003453
     2  C    0.005397  -0.004728  -0.000282  -0.000139
     3  C   -0.038521  -0.041577  -0.009234   0.004760
     4  C    0.367312   0.379631  -0.053255  -0.040056
     5  C   -0.030333  -0.034749   0.368335   0.386355
     6  O    0.002706   0.000918  -0.032084  -0.023881
     7  H    0.000013  -0.000043  -0.000106  -0.000070
     8  H    0.000024   0.000246   0.008574  -0.000106
     9  H    0.000005   0.005535   0.000245  -0.000043
    10  H   -0.000106   0.000006   0.000025   0.000013
    11  H   -0.002996   0.005200   0.006053  -0.000043
    12  H   -0.003897  -0.002780  -0.000043  -0.000148
    13  H    0.574336  -0.026737   0.000312  -0.000852
    14  H   -0.026737   0.553733   0.005542  -0.004386
    15  H    0.000312   0.005542   0.604895  -0.035808
    16  H   -0.000852  -0.004386  -0.035808   0.538760
 Mulliken atomic charges:
              1
     1  C   -0.058641
     2  C   -0.306869
     3  C   -0.307804
     4  C   -0.306759
     5  C   -0.059014
     6  O   -0.532774
     7  H    0.172069
     8  H    0.143841
     9  H    0.164844
    10  H    0.153288
    11  H    0.144899
    12  H    0.158525
    13  H    0.153308
    14  H    0.164887
    15  H    0.144010
    16  H    0.172190
 Sum of Mulliken atomic charges =   0.00000
 Mulliken charges with hydrogens summed into heavy atoms:
              1
     1  C    0.257269
     2  C    0.011263
     3  C   -0.004380
     4  C    0.011435
     5  C    0.257186
     6  O   -0.532774
 Sum of Mulliken charges with hydrogens summed into heavy atoms =   0.00000
 Electronic spatial extent (au):  <R**2>=            557.9568
 Charge=              0.0000 electrons
 Dipole moment (field-independent basis, Debye):
    X=              0.0100    Y=              1.6719    Z=              0.8438  Tot=              1.8728
 Quadrupole moment (field-independent basis, Debye-Ang):
   XX=            -34.2697   YY=            -42.0581   ZZ=            -37.9140
   XY=             -0.0309   XZ=             -0.0032   YZ=             -1.3381
 Traceless Quadrupole moment (field-independent basis, Debye-Ang):
   XX=              3.8109   YY=             -3.9775   ZZ=              0.1666
   XY=             -0.0309   XZ=             -0.0032   YZ=             -1.3381
 Octapole moment (field-independent basis, Debye-Ang**2):
  XXX=             -0.0623  YYY=              2.4655  ZZZ=             -0.7476  XYY=              0.0626
  XXY=             -6.0210  XXZ=             -0.2731  XZZ=             -0.0016  YZZ=             -1.1646
  YYZ=              0.5397  XYZ=              0.0036
 Hexadecapole moment (field-independent basis, Debye-Ang**3):
 XXXX=           -324.2231 YYYY=           -322.1124 ZZZZ=            -87.4013 XXXY=              0.0268
 XXXZ=              0.0412 YYYX=             -0.0930 YYYZ=             -1.6576 ZZZX=              0.0089
 ZZZY=             -0.3268 XXYY=           -101.9119 XXZZ=            -71.9201 YYZZ=            -68.6150
 XXYZ=              3.3401 YYXZ=             -0.0335 ZZXY=             -0.0026
 N-N= 2.550739708236D+02 E-N=-1.141446170694D+03  KE= 2.689176464213D+02
 Calling FoFJK, ICntrl=      2127 FMM=F ISym2X=0 I1Cent= 0 IOpClX= 0 NMat=1 NMatS=1 NMatT=0.
 ***** Axes restored to original set *****
 -------------------------------------------------------------------
 Center     Atomic                   Forces (Hartrees/Bohr)
 Number     Number              X              Y              Z
 -------------------------------------------------------------------
      1        6          -0.032819637   -0.024874552    0.021832082
      2        6          -0.003958123   -0.007240991   -0.010708764
      3        6           0.001584659   -0.001781058    0.013789556
      4        6           0.007984314   -0.000678096   -0.010468011
      5        6           0.038216878    0.016007069    0.021957325
      6        8          -0.021696153    0.036906097   -0.034709877
      7        1          -0.003969027   -0.011236752    0.001082969
      8        1           0.000138809   -0.003819502   -0.001093207
      9        1           0.001959512    0.000985028   -0.000693288
     10        1           0.002350210    0.000031443    0.002401471
     11        1          -0.001390192    0.002495011   -0.001057192
     12        1          -0.000400176    0.000739427   -0.004093029
     13        1          -0.001203758   -0.002060228    0.002412711
     14        1          -0.001865490   -0.001246165   -0.000678730
     15        1           0.003316332   -0.002029770   -0.001070255
     16        1           0.011751842   -0.002196961    0.001096239
 -------------------------------------------------------------------
 Cartesian Forces:  Max     0.038216878 RMS     0.013182270

 GradGradGradGradGradGradGradGradGradGradGradGradGradGradGradGradGradGrad
 Berny optimization.
 Internal  Forces:  Max     0.055582431 RMS     0.009129385
 Search for a local minimum.
 Step number   1 out of a maximum of   99
 All quantities printed in internal units (Hartrees-Bohrs-Radians)
 Mixed Optimization -- RFO/linear search
 Second derivative matrix not updated -- first step.
 ITU=  0
     Eigenvalues ---    0.00551   0.00568   0.00866   0.02494   0.02788
     Eigenvalues ---    0.04322   0.04749   0.04751   0.05109   0.05135
     Eigenvalues ---    0.05765   0.06270   0.06510   0.07182   0.07685
     Eigenvalues ---    0.07685   0.07694   0.08202   0.10111   0.10961
     Eigenvalues ---    0.10983   0.11838   0.12760   0.15908   0.16289
     Eigenvalues ---    0.22370   0.27353   0.27819   0.28040   0.28889
     Eigenvalues ---    0.29006   0.29006   0.34126   0.34126   0.34128
     Eigenvalues ---    0.34128   0.34128   0.34128   0.34128   0.34129
     Eigenvalues ---    0.34129   0.34129
 RFO step:  Lambda=-2.75405277D-02 EMin= 5.51298816D-03
 Linear search not attempted -- first point.
 Maximum step size (   0.300) exceeded in Quadratic search.
    -- Step size scaled by   0.982
 Iteration  1 RMS(Cart)=  0.05986160 RMS(Int)=  0.00170820
 Iteration  2 RMS(Cart)=  0.00178768 RMS(Int)=  0.00049532
 Iteration  3 RMS(Cart)=  0.00000157 RMS(Int)=  0.00049532
 Iteration  4 RMS(Cart)=  0.00000000 RMS(Int)=  0.00049532
 Variable       Old X    -DE/DX   Delta X   Delta X   Delta X     New X
                                 (Linear)    (Quad)   (Total)
    R1        2.89990  -0.00627   0.00000  -0.01940  -0.01939   2.88051
    R2        2.89990  -0.05515   0.00000  -0.17632  -0.17631   2.72359
    R3        2.07118  -0.00339   0.00000  -0.00901  -0.00901   2.06217
    R4        2.07114   0.00110   0.00000   0.00293   0.00293   2.07407
    R5        2.90234  -0.00639   0.00000  -0.01399  -0.01400   2.88835
    R6        2.07114  -0.00069   0.00000  -0.00184  -0.00184   2.06930
    R7        2.07112   0.00033   0.00000   0.00088   0.00088   2.07200
    R8        2.89990  -0.00571   0.00000  -0.01178  -0.01180   2.88811
    R9        2.07114   0.00105   0.00000   0.00279   0.00279   2.07393
   R10        2.07112  -0.00057   0.00000  -0.00151  -0.00151   2.06961
   R11        2.89990  -0.00629   0.00000  -0.01943  -0.01943   2.88047
   R12        2.07118   0.00033   0.00000   0.00088   0.00088   2.07206
   R13        2.07114  -0.00068   0.00000  -0.00180  -0.00180   2.06934
   R14        2.90234  -0.05558   0.00000  -0.17826  -0.17825   2.72410
   R15        2.07114   0.00108   0.00000   0.00286   0.00286   2.07400
   R16        2.07112  -0.00338   0.00000  -0.00900  -0.00900   2.06212
    A1        1.91071   0.00852   0.00000   0.02693   0.02715   1.93786
    A2        1.91062   0.00596   0.00000   0.04441   0.04425   1.95487
    A3        1.91060   0.00138   0.00000   0.02697   0.02644   1.93704
    A4        1.91062  -0.01148   0.00000  -0.07951  -0.07969   1.83093
    A5        1.91060  -0.00389   0.00000  -0.01864  -0.01960   1.89100
    A6        1.91065  -0.00049   0.00000  -0.00016  -0.00237   1.90828
    A7        1.91025  -0.00474   0.00000  -0.00495  -0.00498   1.90527
    A8        1.91068  -0.00043   0.00000  -0.01532  -0.01530   1.89538
    A9        1.91072   0.00197   0.00000   0.00786   0.00768   1.91839
   A10        1.91076   0.00207   0.00000   0.00259   0.00235   1.91310
   A11        1.91070   0.00311   0.00000   0.02416   0.02421   1.93491
   A12        1.91070  -0.00198   0.00000  -0.01433  -0.01435   1.89635
   A13        1.91025  -0.01090   0.00000  -0.02465  -0.02532   1.88492
   A14        1.91076   0.00199   0.00000  -0.00722  -0.00734   1.90341
   A15        1.91070   0.00523   0.00000   0.02972   0.02991   1.94060
   A16        1.91068   0.00205   0.00000  -0.00669  -0.00682   1.90386
   A17        1.91072   0.00525   0.00000   0.02997   0.03016   1.94087
   A18        1.91070  -0.00363   0.00000  -0.02112  -0.02102   1.88968
   A19        1.91071  -0.00478   0.00000  -0.00497  -0.00501   1.90570
   A20        1.91062   0.00315   0.00000   0.02434   0.02439   1.93501
   A21        1.91060   0.00210   0.00000   0.00287   0.00263   1.91323
   A22        1.91062   0.00196   0.00000   0.00769   0.00752   1.91814
   A23        1.91060  -0.00043   0.00000  -0.01547  -0.01544   1.89516
   A24        1.91065  -0.00199   0.00000  -0.01447  -0.01450   1.89615
   A25        1.91025   0.00851   0.00000   0.02697   0.02718   1.93743
   A26        1.91068   0.00143   0.00000   0.02719   0.02666   1.93734
   A27        1.91072   0.00598   0.00000   0.04461   0.04444   1.95516
   A28        1.91076  -0.00395   0.00000  -0.01913  -0.02008   1.89067
   A29        1.91070  -0.01148   0.00000  -0.07963  -0.07981   1.83089
   A30        1.91070  -0.00049   0.00000   0.00000  -0.00223   1.90847
   A31        1.91025   0.00515   0.00000  -0.00276  -0.00342   1.90683
    D1       -1.04786  -0.00124   0.00000  -0.00340  -0.00327  -1.05113
    D2        1.04648  -0.00187   0.00000  -0.01264  -0.01258   1.03390
    D3        3.14103  -0.00335   0.00000  -0.03476  -0.03473   3.10630
    D4        3.14090   0.00395   0.00000   0.05029   0.05066  -3.09162
    D5       -1.04794   0.00332   0.00000   0.04105   0.04135  -1.00659
    D6        1.04661   0.00184   0.00000   0.01893   0.01920   1.06581
    D7        1.04652   0.00006   0.00000   0.00678   0.00676   1.05329
    D8        3.14086  -0.00058   0.00000  -0.00245  -0.00254   3.13832
    D9       -1.04777  -0.00206   0.00000  -0.02458  -0.02470  -1.07247
   D10        1.04786   0.00082   0.00000   0.03695   0.03725   1.08511
   D11       -3.14090   0.00631   0.00000   0.05914   0.05785  -3.08305
   D12       -1.04652  -0.00371   0.00000  -0.00116   0.00020  -1.04632
   D13        1.04758  -0.00421   0.00000  -0.06051  -0.06037   0.98721
   D14       -1.04672  -0.00126   0.00000  -0.03280  -0.03289  -1.07961
   D15       -3.14131  -0.00124   0.00000  -0.02072  -0.02077   3.12110
   D16       -1.04672  -0.00204   0.00000  -0.04030  -0.04010  -1.08682
   D17       -3.14101   0.00091   0.00000  -0.01259  -0.01262   3.12955
   D18        1.04758   0.00092   0.00000  -0.00050  -0.00050   1.04708
   D19       -3.14131  -0.00279   0.00000  -0.03914  -0.03893   3.10295
   D20        1.04758   0.00015   0.00000  -0.01143  -0.01145   1.03613
   D21       -1.04701   0.00017   0.00000   0.00065   0.00067  -1.04634
   D22       -1.04786   0.00421   0.00000   0.06056   0.06043  -0.98744
   D23        3.14090   0.00281   0.00000   0.03928   0.03907  -3.10321
   D24        1.04652   0.00204   0.00000   0.04033   0.04014   1.08666
   D25        1.04648   0.00123   0.00000   0.03253   0.03261   1.07909
   D26       -1.04794  -0.00017   0.00000   0.01125   0.01126  -1.03668
   D27        3.14086  -0.00094   0.00000   0.01230   0.01233  -3.13000
   D28        3.14103   0.00126   0.00000   0.02093   0.02099  -3.12116
   D29        1.04661  -0.00014   0.00000  -0.00036  -0.00037   1.04625
   D30       -1.04777  -0.00091   0.00000   0.00070   0.00070  -1.04707
   D31        1.04786   0.00121   0.00000   0.00327   0.00313   1.05100
   D32       -1.04648  -0.00004   0.00000  -0.00646  -0.00643  -1.05291
   D33       -3.14103  -0.00398   0.00000  -0.05045  -0.05082   3.09133
   D34       -3.14090   0.00334   0.00000   0.03474   0.03471  -3.10619
   D35        1.04794   0.00210   0.00000   0.02502   0.02515   1.07309
   D36       -1.04661  -0.00184   0.00000  -0.01897  -0.01924  -1.06585
   D37       -1.04652   0.00183   0.00000   0.01226   0.01220  -1.03432
   D38       -3.14086   0.00059   0.00000   0.00254   0.00264  -3.13822
   D39        1.04777  -0.00335   0.00000  -0.04145  -0.04175   1.00602
   D40       -1.04758  -0.00083   0.00000  -0.03693  -0.03721  -1.08479
   D41        1.04672   0.00371   0.00000   0.00118  -0.00020   1.04652
   D42        3.14131  -0.00634   0.00000  -0.05933  -0.05802   3.08329
         Item               Value     Threshold  Converged?
 Maximum Force            0.055582     0.000450     NO 
 RMS     Force            0.009129     0.000300     NO 
 Maximum Displacement     0.281322     0.001800     NO 
 RMS     Displacement     0.060419     0.001200     NO 
 Predicted change in Energy=-1.553509D-02
 GradGradGradGradGradGradGradGradGradGradGradGradGradGradGradGradGradGrad

                          Input orientation:                          
 ---------------------------------------------------------------------
 Center     Atomic      Atomic             Coordinates (Angstroms)
 Number     Number       Type             X           Y           Z
 ---------------------------------------------------------------------
      1          6           0        1.372186   -0.026737   -0.251165
      2          6           0        0.705718    1.250770    0.246115
      3          6           0       -0.741830    1.284800   -0.243374
      4          6           0       -1.435930    0.014319    0.246385
      5          6           0       -0.663513   -1.202043   -0.250872
      6          8           0        0.689283   -1.194086    0.247013
      7          1           0        2.395822   -0.122951    0.114546
      8          1           0        1.372670   -0.068541   -1.347917
      9          1           0        0.723579    1.250585    1.340997
     10          1           0        1.260188    2.125670   -0.113512
     11          1           0       -0.748831    1.297221   -1.340759
     12          1           0       -1.259373    2.181610    0.113453
     13          1           0       -2.471051   -0.028463   -0.112748
     14          1           0       -1.444384   -0.001308    1.341288
     15          1           0       -0.627503   -1.223746   -1.347581
     16          1           0       -1.091831   -2.136500    0.115333
 ---------------------------------------------------------------------
                    Distance matrix (angstroms):
                    1          2          3          4          5
     1  C    0.000000
     2  C    1.524300   0.000000
     3  C    2.487821   1.528448   0.000000
     4  C    2.852149   2.472947   1.528320   0.000000
     5  C    2.350619   2.852732   2.488087   1.524279   0.000000
     6  O    1.441264   2.444912   2.904039   2.444744   1.441530
     7  H    1.091253   2.181942   3.457561   3.836475   3.264582
     8  H    1.097549   2.174016   2.742746   3.230619   2.575728
     9  H    2.141780   1.095028   2.158431   2.718457   3.236271
    10  H    2.159711   1.096457   2.175316   3.443310   3.846189
    11  H    2.727415   2.153146   1.097477   2.153362   2.727903
    12  H    3.454684   2.178450   1.095191   2.178530   3.454980
    13  H    3.845729   3.443412   2.175300   1.096487   2.159528
    14  H    3.235678   2.718463   2.158428   1.095047   2.141610
    15  H    2.575599   3.231188   2.743200   2.174186   1.097515
    16  H    3.264476   3.836912   3.457813   2.182109   1.091226
                    6          7          8          9         10
     6  O    0.000000
     7  H    2.019196   0.000000
     8  H    2.068253   1.785665   0.000000
     9  H    2.678506   2.487404   3.064583   0.000000
    10  H    3.387727   2.529421   2.520114   1.780259   0.000000
    11  H    3.285697   3.744815   2.523118   3.059735   2.495720
    12  H    3.900054   4.321047   3.758515   2.511129   2.530381
    13  H    3.387598   4.873094   4.037504   3.735640   4.308415
    14  H    2.678188   4.033221   3.895142   2.503457   3.735664
    15  H    2.068220   3.534127   2.309802   3.895662   4.037931
    16  H    2.019369   4.027171   3.534306   4.033647   4.873445
                   11         12         13         14         15
    11  H    0.000000
    12  H    1.776944   0.000000
    13  H    2.496296   2.530564   0.000000
    14  H    3.059958   2.511362   1.780170   0.000000
    15  H    2.523894   3.759033   2.520354   3.064582   0.000000
    16  H    3.745437   4.321360   2.529445   2.487228   1.785732
                   16
    16  H    0.000000
 Stoichiometry    C5H10O
 Framework group  C1[X(C5H10O)]
 Deg. of freedom    42
 Full point group                 C1      NOp   1
 Largest Abelian subgroup         C1      NOp   1
 Largest concise Abelian subgroup C1      NOp   1
                         Standard orientation:                         
 ---------------------------------------------------------------------
 Center     Atomic      Atomic             Coordinates (Angstroms)
 Number     Number       Type             X           Y           Z
 ---------------------------------------------------------------------
      1          6           0       -1.153979   -0.786152    0.217292
      2          6           0       -1.255261    0.662399   -0.246316
      3          6           0       -0.039529    1.437666    0.260743
      4          6           0        1.216755    0.730249   -0.246282
      5          6           0        1.195756   -0.721677    0.217288
      6          8           0        0.038765   -1.411390   -0.296207
      7          1           0       -1.975922   -1.395381   -0.162290
      8          1           0       -1.131938   -0.847562    1.312900
      9          1           0       -1.270947    0.678398   -1.341115
     10          1           0       -2.185539    1.108996    0.124296
     11          1           0       -0.039500    1.426345    1.358162
     12          1           0       -0.068303    2.480734   -0.071861
     13          1           0        2.121253    1.227253    0.124062
     14          1           0        1.231574    0.746870   -1.341103
     15          1           0        1.177005   -0.784560    1.312839
     16          1           0        2.049733   -1.284880   -0.162582
 ---------------------------------------------------------------------
 Rotational constants (GHZ):      4.7217328      4.4835019      2.6304878
 Standard basis: 6-31G(d) (6D, 7F)
 There are   110 symmetry adapted basis functions of A   symmetry.
 Integral buffers will be    131072 words long.
 Raffenetti 2 integral format.
 Two-electron integral symmetry is turned on.
   110 basis functions,   208 primitive gaussians,   110 cartesian basis functions
    24 alpha electrons       24 beta electrons
       nuclear repulsion energy       260.3095726438 Hartrees.
 NAtoms=   16 NActive=   16 NUniq=   16 SFac= 1.00D+00 NAtFMM=   50 NAOKFM=F Big=F
 One-electron integrals computed using PRISM.
 NBasis=   110 RedAO= T  NBF=   110
 NBsUse=   110 1.00D-06 NBFU=   110
 Initial guess read from the read-write file.
 B after Tr=     0.000000    0.000000    0.000000
         Rot=    1.000000    0.000000    0.000000    0.000000 Ang=   0.00 deg.
 Initial guess orbital symmetries:
       Occupied  (A) (A) (A) (A) (A) (A) (A) (A) (A) (A) (A) (A)
                 (A) (A) (A) (A) (A) (A) (A) (A) (A) (A) (A) (A)
       Virtual   (A) (A) (A) (A) (A) (A) (A) (A) (A) (A) (A) (A)
                 (A) (A) (A) (A) (A) (A) (A) (A) (A) (A) (A) (A)
                 (A) (A) (A) (A) (A) (A) (A) (A) (A) (A) (A) (A)
                 (A) (A) (A) (A) (A) (A) (A) (A) (A) (A) (A) (A)
                 (A) (A) (A) (A) (A) (A) (A) (A) (A) (A) (A) (A)
                 (A) (A) (A) (A) (A) (A) (A) (A) (A) (A) (A) (A)
                 (A) (A) (A) (A) (A) (A) (A) (A) (A) (A) (A) (A)
                 (A) (A)
 Harris functional with IExCor= 1009 diagonalized for initial guess.
 ExpMin= 1.61D-01 ExpMax= 5.48D+03 ExpMxC= 8.25D+02 IAcc=1 IRadAn=         1 AccDes= 0.00D+00
 HarFok:  IExCor= 1009 AccDes= 0.00D+00 IRadAn=         1 IDoV= 1
 ScaDFX=  1.000000  1.000000  1.000000  1.000000
 FoFCou: FMM=F IPFlag=           0 FMFlag=      100000 FMFlg1=           0
         NFxFlg=           0 DoJE=T BraDBF=F KetDBF=T FulRan=T
         Omega=  0.000000  0.000000  1.000000  0.000000  0.000000 ICntrl=     500 IOpCl=  0
         NMat0=    1 NMatS0=    1 NMatT0=    0 NMatD0=    1 NMtDS0=    0 NMtDT0=    0
         I1Cent=           4 NGrid=           0.
 Petite list used in FoFCou.
 Requested convergence on RMS density matrix=1.00D-08 within 128 cycles.
 Requested convergence on MAX density matrix=1.00D-06.
 Requested convergence on             energy=1.00D-06.
 No special actions if energy rises.
 Keep R1 ints in memory in canonical form, NReq=19758699.
 Integral accuracy reduced to 1.0D-05 until final iterations.
 Initial convergence to 1.0D-05 achieved.  Increase integral accuracy.
 SCF Done:  E(RM062X) =  -271.636897510     A.U. after   14 cycles
             Convg  =    0.7694D-08             -V/T =  2.0087
 Calling FoFJK, ICntrl=      2127 FMM=F ISym2X=0 I1Cent= 0 IOpClX= 0 NMat=1 NMatS=1 NMatT=0.
 ***** Axes restored to original set *****
 -------------------------------------------------------------------
 Center     Atomic                   Forces (Hartrees/Bohr)
 Number     Number              X              Y              Z
 -------------------------------------------------------------------
      1        6          -0.005240884   -0.015421493    0.012764609
      2        6           0.001224862    0.001305542   -0.006102335
      3        6           0.000684055   -0.001053367    0.005296689
      4        6          -0.002071009   -0.000190983   -0.006054685
      5        6           0.016412525   -0.003449487    0.012720743
      6        8          -0.008891301    0.015246757   -0.012463334
      7        1           0.001770499    0.001281628   -0.001127086
      8        1           0.001449533    0.002248361   -0.002842513
      9        1           0.001217269    0.001003112    0.000550356
     10        1           0.000778349   -0.000357758    0.001175949
     11        1          -0.001117107    0.001864629   -0.000644100
     12        1           0.000037062   -0.000105700   -0.001060708
     13        1          -0.000100303   -0.000801806    0.001202936
     14        1          -0.001458643   -0.000538457    0.000539702
     15        1          -0.002664480   -0.000151426   -0.002850245
     16        1          -0.002030426   -0.000879553   -0.001105978
 -------------------------------------------------------------------
 Cartesian Forces:  Max     0.016412525 RMS     0.005604813

 GradGradGradGradGradGradGradGradGradGradGradGradGradGradGradGradGradGrad
 Berny optimization.
 Using GEDIIS/GDIIS optimizer.
 Internal  Forces:  Max     0.011756579 RMS     0.002186637
 Search for a local minimum.
 Step number   2 out of a maximum of   99
 All quantities printed in internal units (Hartrees-Bohrs-Radians)
 Mixed Optimization -- RFO/linear search
 Update second derivatives using D2CorX and points    1    2
 DE= -1.65D-02 DEPred=-1.55D-02 R= 1.06D+00
 SS=  1.41D+00  RLast= 3.60D-01 DXNew= 5.0454D-01 1.0807D+00
 Trust test= 1.06D+00 RLast= 3.60D-01 DXMaxT set to 5.05D-01
 ITU=  1  0
 Use linear search instead of GDIIS.
     Eigenvalues ---    0.00542   0.00562   0.00896   0.02409   0.02792
     Eigenvalues ---    0.04158   0.04644   0.04785   0.05085   0.05121
     Eigenvalues ---    0.05679   0.05975   0.06421   0.07071   0.07521
     Eigenvalues ---    0.07644   0.07687   0.08364   0.10211   0.11435
     Eigenvalues ---    0.11816   0.12244   0.12818   0.16252   0.16493
     Eigenvalues ---    0.22166   0.23582   0.27304   0.27721   0.28897
     Eigenvalues ---    0.28964   0.29313   0.34113   0.34126   0.34128
     Eigenvalues ---    0.34128   0.34128   0.34128   0.34129   0.34129
     Eigenvalues ---    0.34129   0.34482
 RFO step:  Lambda=-2.68904761D-03 EMin= 5.42220984D-03
 Quartic linear search produced a step of  0.12895.
 Iteration  1 RMS(Cart)=  0.02172577 RMS(Int)=  0.00053178
 Iteration  2 RMS(Cart)=  0.00046900 RMS(Int)=  0.00022428
 Iteration  3 RMS(Cart)=  0.00000022 RMS(Int)=  0.00022428
 Variable       Old X    -DE/DX   Delta X   Delta X   Delta X     New X
                                 (Linear)    (Quad)   (Total)
    R1        2.88051  -0.00031  -0.00250  -0.00010  -0.00259   2.87792
    R2        2.72359  -0.01165  -0.02273  -0.03462  -0.05725   2.66634
    R3        2.06217   0.00117  -0.00116   0.00436   0.00320   2.06537
    R4        2.07407   0.00275   0.00038   0.00886   0.00924   2.08330
    R5        2.88835   0.00184  -0.00180   0.00882   0.00692   2.89527
    R6        2.06930   0.00057  -0.00024   0.00198   0.00174   2.07104
    R7        2.07200  -0.00028   0.00011  -0.00096  -0.00085   2.07116
    R8        2.88811   0.00181  -0.00152   0.00861   0.00698   2.89509
    R9        2.07393   0.00067   0.00036   0.00205   0.00241   2.07634
   R10        2.06961  -0.00045  -0.00019  -0.00139  -0.00158   2.06803
   R11        2.88047   0.00004  -0.00251   0.00149  -0.00101   2.87946
   R12        2.07206  -0.00027   0.00011  -0.00093  -0.00081   2.07125
   R13        2.06934   0.00056  -0.00023   0.00193   0.00170   2.07104
   R14        2.72410  -0.01176  -0.02298  -0.03505  -0.05793   2.66617
   R15        2.07400   0.00276   0.00037   0.00889   0.00926   2.08327
   R16        2.06212   0.00118  -0.00116   0.00439   0.00322   2.06534
    A1        1.93786  -0.00021   0.00350   0.00823   0.01131   1.94917
    A2        1.95487  -0.00041   0.00571  -0.01000  -0.00449   1.95038
    A3        1.93704  -0.00156   0.00341  -0.02543  -0.02224   1.91480
    A4        1.83093   0.00208  -0.01028   0.03261   0.02234   1.85327
    A5        1.89100   0.00081  -0.00253   0.01721   0.01486   1.90587
    A6        1.90828  -0.00047  -0.00031  -0.01893  -0.01999   1.88829
    A7        1.90527  -0.00071  -0.00064   0.00765   0.00631   1.91157
    A8        1.89538  -0.00010  -0.00197  -0.00726  -0.00914   1.88625
    A9        1.91839   0.00010   0.00099   0.00170   0.00279   1.92119
   A10        1.91310  -0.00037   0.00030  -0.00058  -0.00005   1.91305
   A11        1.93491   0.00187   0.00312   0.01069   0.01389   1.94880
   A12        1.89635  -0.00084  -0.00185  -0.01266  -0.01461   1.88174
   A13        1.88492  -0.00152  -0.00327   0.02010   0.01620   1.90112
   A14        1.90341   0.00057  -0.00095  -0.00076  -0.00168   1.90173
   A15        1.94060   0.00078   0.00386  -0.00069   0.00329   1.94390
   A16        1.90386   0.00055  -0.00088  -0.00125  -0.00212   1.90174
   A17        1.94087   0.00074   0.00389  -0.00106   0.00295   1.94383
   A18        1.88968  -0.00111  -0.00271  -0.01633  -0.01910   1.87057
   A19        1.90570  -0.00080  -0.00065   0.00752   0.00614   1.91185
   A20        1.93501   0.00187   0.00315   0.01068   0.01390   1.94892
   A21        1.91323  -0.00035   0.00034  -0.00118  -0.00061   1.91262
   A22        1.91814   0.00021   0.00097   0.00273   0.00380   1.92193
   A23        1.89516  -0.00011  -0.00199  -0.00755  -0.00943   1.88573
   A24        1.89615  -0.00085  -0.00187  -0.01267  -0.01464   1.88151
   A25        1.93743  -0.00023   0.00350   0.00856   0.01164   1.94907
   A26        1.93734  -0.00155   0.00344  -0.02532  -0.02211   1.91523
   A27        1.95516  -0.00044   0.00573  -0.01059  -0.00505   1.95011
   A28        1.89067   0.00081  -0.00259   0.01720   0.01479   1.90547
   A29        1.83089   0.00211  -0.01029   0.03290   0.02263   1.85351
   A30        1.90847  -0.00047  -0.00029  -0.01902  -0.02008   1.88839
   A31        1.90683   0.00663  -0.00044   0.05089   0.05036   1.95719
    D1       -1.05113   0.00255  -0.00042   0.05337   0.05297  -0.99816
    D2        1.03390   0.00164  -0.00162   0.05285   0.05117   1.08507
    D3        3.10630   0.00062  -0.00448   0.03415   0.02973   3.13603
    D4       -3.09162   0.00034   0.00653   0.01356   0.02027  -3.07135
    D5       -1.00659  -0.00057   0.00533   0.01304   0.01847  -0.98812
    D6        1.06581  -0.00159   0.00248  -0.00566  -0.00297   1.06284
    D7        1.05329   0.00238   0.00087   0.06356   0.06422   1.11750
    D8        3.13832   0.00147  -0.00033   0.06304   0.06241  -3.08245
    D9       -1.07247   0.00045  -0.00318   0.04434   0.04097  -1.03149
   D10        1.08511  -0.00023   0.00480  -0.03572  -0.03116   1.05395
   D11       -3.08305   0.00043   0.00746  -0.02336  -0.01611  -3.09917
   D12       -1.04632   0.00131   0.00003  -0.02069  -0.02057  -1.06689
   D13        0.98721  -0.00093  -0.00778  -0.03636  -0.04440   0.94281
   D14       -1.07961  -0.00104  -0.00424  -0.04587  -0.05020  -1.12980
   D15        3.12110  -0.00051  -0.00268  -0.02478  -0.02759   3.09351
   D16       -1.08682  -0.00016  -0.00517  -0.03177  -0.03702  -1.12384
   D17        3.12955  -0.00028  -0.00163  -0.04128  -0.04282   3.08673
   D18        1.04708   0.00025  -0.00007  -0.02019  -0.02021   1.02686
   D19        3.10295  -0.00007  -0.00502  -0.02241  -0.02757   3.07538
   D20        1.03613  -0.00018  -0.00148  -0.03192  -0.03336   1.00277
   D21       -1.04634   0.00034   0.00009  -0.01083  -0.01076  -1.05710
   D22       -0.98744   0.00099   0.00779   0.03731   0.04535  -0.94208
   D23       -3.10321   0.00007   0.00504   0.02217   0.02734  -3.07587
   D24        1.08666   0.00018   0.00518   0.03193   0.03719   1.12384
   D25        1.07909   0.00111   0.00421   0.04715   0.05143   1.13053
   D26       -1.03668   0.00019   0.00145   0.03200   0.03342  -1.00326
   D27       -3.13000   0.00030   0.00159   0.04177   0.04327  -3.08673
   D28       -3.12116   0.00056   0.00271   0.02550   0.02833  -3.09283
   D29        1.04625  -0.00037  -0.00005   0.01035   0.01032   1.05657
   D30       -1.04707  -0.00026   0.00009   0.02012   0.02017  -1.02690
   D31        1.05100  -0.00257   0.00040  -0.05471  -0.05434   0.99666
   D32       -1.05291  -0.00239  -0.00083  -0.06519  -0.06581  -1.11872
   D33        3.09133  -0.00035  -0.00655  -0.01469  -0.02143   3.06990
   D34       -3.10619  -0.00064   0.00448  -0.03493  -0.03051  -3.13670
   D35        1.07309  -0.00046   0.00324  -0.04542  -0.04198   1.03110
   D36       -1.06585   0.00158  -0.00248   0.00509   0.00239  -1.06346
   D37       -1.03432  -0.00162   0.00157  -0.05321  -0.05159  -1.08590
   D38       -3.13822  -0.00144   0.00034  -0.06370  -0.06306   3.08190
   D39        1.00602   0.00060  -0.00538  -0.01319  -0.01868   0.98734
   D40       -1.08479   0.00025  -0.00480   0.03641   0.03186  -1.05293
   D41        1.04652  -0.00129  -0.00003   0.02171   0.02159   1.06811
   D42        3.08329  -0.00038  -0.00748   0.02440   0.01714   3.10043
         Item               Value     Threshold  Converged?
 Maximum Force            0.011757     0.000450     NO 
 RMS     Force            0.002187     0.000300     NO 
 Maximum Displacement     0.060296     0.001800     NO 
 RMS     Displacement     0.021686     0.001200     NO 
 Predicted change in Energy=-1.826591D-03
 GradGradGradGradGradGradGradGradGradGradGradGradGradGradGradGradGradGrad

                          Input orientation:                          
 ---------------------------------------------------------------------
 Center     Atomic      Atomic             Coordinates (Angstroms)
 Number     Number       Type             X           Y           Z
 ---------------------------------------------------------------------
      1          6           0        1.372129   -0.035673   -0.240874
      2          6           0        0.715700    1.253640    0.234612
      3          6           0       -0.743327    1.287621   -0.231696
      4          6           0       -1.443894    0.007364    0.234368
      5          6           0       -0.655190   -1.206900   -0.240296
      6          8           0        0.678167   -1.174549    0.219790
      7          1           0        2.395080   -0.130736    0.132036
      8          1           0        1.404567   -0.051993   -1.342712
      9          1           0        0.752286    1.269983    1.329827
     10          1           0        1.278010    2.119759   -0.132647
     11          1           0       -0.766439    1.327863   -1.329468
     12          1           0       -1.258718    2.180515    0.135345
     13          1           0       -2.475314   -0.046033   -0.132597
     14          1           0       -1.476291   -0.015816    1.329589
     15          1           0       -0.657247   -1.244668   -1.342063
     16          1           0       -1.084320   -2.139778    0.133986
 ---------------------------------------------------------------------
                    Distance matrix (angstroms):
                    1          2          3          4          5
     1  C    0.000000
     2  C    1.522930   0.000000
     3  C    2.495265   1.532110   0.000000
     4  C    2.856167   2.493401   1.532014   0.000000
     5  C    2.341323   2.856420   2.496092   1.523744   0.000000
     6  O    1.410969   2.428524   2.878674   2.429047   1.410874
     7  H    1.092945   2.178838   3.463183   3.842820   3.255903
     8  H    1.102436   2.160362   2.764483   3.256444   2.606094
     9  H    2.134490   1.095948   2.162297   2.759972   3.252879
    10  H    2.160199   1.096008   2.188166   3.464921   3.849092
    11  H    2.760025   2.156060   1.098752   2.155979   2.761104
    12  H    3.460403   2.183410   1.094353   2.183273   3.461204
    13  H    3.848980   3.465049   2.188202   1.096057   2.161495
    14  H    3.252729   2.759587   2.161896   1.095945   2.134813
    15  H    2.606271   3.257673   2.766372   2.161373   1.102417
    16  H    3.256059   3.842589   3.463678   2.179355   1.092933
                    6          7          8          9         10
     6  O    0.000000
     7  H    2.011228   0.000000
     8  H    2.056502   1.778257   0.000000
     9  H    2.685780   2.468905   3.052139   0.000000
    10  H    3.366970   2.526386   2.489333   1.771253   0.000000
    11  H    3.278590   3.776070   2.572439   3.062961   2.497850
    12  H    3.874933   4.323440   3.776484   2.509979   2.551569
    13  H    3.367813   4.878313   4.064220   3.779945   4.333370
    14  H    2.686262   4.053993   3.929611   2.572904   3.779549
    15  H    2.056120   3.567984   2.381921   3.930554   4.065375
    16  H    2.011315   4.017771   3.568479   4.053349   4.878048
                   11         12         13         14         15
    11  H    0.000000
    12  H    1.764946   0.000000
    13  H    2.498067   2.551355   0.000000
    14  H    3.062670   2.509467   1.771143   0.000000
    15  H    2.574878   3.778410   2.490964   3.052645   0.000000
    16  H    3.777205   4.323812   2.527786   2.468669   1.778295
                   16
    16  H    0.000000
 Stoichiometry    C5H10O
 Framework group  C1[X(C5H10O)]
 Deg. of freedom    42
 Full point group                 C1      NOp   1
 Largest Abelian subgroup         C1      NOp   1
 Largest concise Abelian subgroup C1      NOp   1
                         Standard orientation:                         
 ---------------------------------------------------------------------
 Center     Atomic      Atomic             Coordinates (Angstroms)
 Number     Number       Type             X           Y           Z
 ---------------------------------------------------------------------
      1          6           0       -1.168036   -0.767741    0.200654
      2          6           0       -1.248951    0.689277   -0.235084
      3          6           0       -0.004897    1.439253    0.251974
      4          6           0        1.244435    0.697955   -0.234558
      5          6           0        1.173276   -0.760682    0.200309
      6          8           0        0.004495   -1.390345   -0.277225
      7          1           0       -2.004443   -1.353857   -0.188473
      8          1           0       -1.187887   -0.828330    1.301244
      9          1           0       -1.288774    0.715010   -1.330006
     10          1           0       -2.170529    1.144940    0.144785
     11          1           0       -0.005175    1.455569    1.350605
     12          1           0       -0.008386    2.479879   -0.086687
     13          1           0        2.162814    1.160214    0.145229
     14          1           0        1.284114    0.724214   -1.329470
     15          1           0        1.194027   -0.822464    1.300798
     16          1           0        2.013307   -1.340780   -0.189995
 ---------------------------------------------------------------------
 Rotational constants (GHZ):      4.7159964      4.5324631      2.6279550
 Standard basis: 6-31G(d) (6D, 7F)
 There are   110 symmetry adapted basis functions of A   symmetry.
 Integral buffers will be    131072 words long.
 Raffenetti 2 integral format.
 Two-electron integral symmetry is turned on.
   110 basis functions,   208 primitive gaussians,   110 cartesian basis functions
    24 alpha electrons       24 beta electrons
       nuclear repulsion energy       260.9838472651 Hartrees.
 NAtoms=   16 NActive=   16 NUniq=   16 SFac= 1.00D+00 NAtFMM=   50 NAOKFM=F Big=F
 One-electron integrals computed using PRISM.
 NBasis=   110 RedAO= T  NBF=   110
 NBsUse=   110 1.00D-06 NBFU=   110
 Initial guess read from the read-write file.
 B after Tr=     0.000000    0.000000    0.000000
         Rot=    1.000000    0.000000    0.000000    0.000000 Ang=   0.00 deg.
 Initial guess orbital symmetries:
       Occupied  (A) (A) (A) (A) (A) (A) (A) (A) (A) (A) (A) (A)
                 (A) (A) (A) (A) (A) (A) (A) (A) (A) (A) (A) (A)
       Virtual   (A) (A) (A) (A) (A) (A) (A) (A) (A) (A) (A) (A)
                 (A) (A) (A) (A) (A) (A) (A) (A) (A) (A) (A) (A)
                 (A) (A) (A) (A) (A) (A) (A) (A) (A) (A) (A) (A)
                 (A) (A) (A) (A) (A) (A) (A) (A) (A) (A) (A) (A)
                 (A) (A) (A) (A) (A) (A) (A) (A) (A) (A) (A) (A)
                 (A) (A) (A) (A) (A) (A) (A) (A) (A) (A) (A) (A)
                 (A) (A) (A) (A) (A) (A) (A) (A) (A) (A) (A) (A)
                 (A) (A)
 Harris functional with IExCor= 1009 diagonalized for initial guess.
 ExpMin= 1.61D-01 ExpMax= 5.48D+03 ExpMxC= 8.25D+02 IAcc=1 IRadAn=         1 AccDes= 0.00D+00
 HarFok:  IExCor= 1009 AccDes= 0.00D+00 IRadAn=         1 IDoV= 1
 ScaDFX=  1.000000  1.000000  1.000000  1.000000
 FoFCou: FMM=F IPFlag=           0 FMFlag=      100000 FMFlg1=           0
         NFxFlg=           0 DoJE=T BraDBF=F KetDBF=T FulRan=T
         Omega=  0.000000  0.000000  1.000000  0.000000  0.000000 ICntrl=     500 IOpCl=  0
         NMat0=    1 NMatS0=    1 NMatT0=    0 NMatD0=    1 NMtDS0=    0 NMtDT0=    0
         I1Cent=           4 NGrid=           0.
 Petite list used in FoFCou.
 Requested convergence on RMS density matrix=1.00D-08 within 128 cycles.
 Requested convergence on MAX density matrix=1.00D-06.
 Requested convergence on             energy=1.00D-06.
 No special actions if energy rises.
 Keep R1 ints in memory in canonical form, NReq=19758699.
 Integral accuracy reduced to 1.0D-05 until final iterations.
 Initial convergence to 1.0D-05 achieved.  Increase integral accuracy.
 SCF Done:  E(RM062X) =  -271.638519481     A.U. after   13 cycles
             Convg  =    0.5151D-08             -V/T =  2.0085
 Calling FoFJK, ICntrl=      2127 FMM=F ISym2X=0 I1Cent= 0 IOpClX= 0 NMat=1 NMatS=1 NMatT=0.
 ***** Axes restored to original set *****
 -------------------------------------------------------------------
 Center     Atomic                   Forces (Hartrees/Bohr)
 Number     Number              X              Y              Z
 -------------------------------------------------------------------
      1        6           0.000646626   -0.001049281   -0.001176567
      2        6          -0.000905522    0.000908356    0.000051817
      3        6           0.000774643   -0.001323310    0.000722588
      4        6          -0.000186060    0.000991000    0.000049312
      5        6           0.000395807   -0.000815923   -0.001154691
      6        8           0.000817977   -0.001354685    0.003112034
      7        1           0.000286229    0.000250413    0.000085699
      8        1           0.000643050    0.000727984   -0.001427539
      9        1          -0.000094036    0.000983933    0.000678403
     10        1          -0.000352440   -0.000258549   -0.000237212
     11        1          -0.000333179    0.000597967   -0.000277215
     12        1           0.000029006   -0.000053038    0.000489293
     13        1           0.000460718    0.000124895   -0.000268484
     14        1          -0.000812452    0.000557159    0.000690799
     15        1          -0.001013866   -0.000164393   -0.001429892
     16        1          -0.000356500   -0.000122527    0.000091655
 -------------------------------------------------------------------
 Cartesian Forces:  Max     0.003112034 RMS     0.000834072

 GradGradGradGradGradGradGradGradGradGradGradGradGradGradGradGradGradGrad
 Berny optimization.
 Using GEDIIS/GDIIS optimizer.
 Internal  Forces:  Max     0.002199797 RMS     0.000573401
 Search for a local minimum.
 Step number   3 out of a maximum of   99
 All quantities printed in internal units (Hartrees-Bohrs-Radians)
 Mixed Optimization -- En-DIIS/RFO-DIIS
 Update second derivatives using D2CorX and points    1    2    3
 DE= -1.62D-03 DEPred=-1.83D-03 R= 8.88D-01
 SS=  1.41D+00  RLast= 2.73D-01 DXNew= 8.4853D-01 8.1820D-01
 Trust test= 8.88D-01 RLast= 2.73D-01 DXMaxT set to 8.18D-01
 ITU=  1  1  0
 Use linear search instead of GDIIS.
     Eigenvalues ---    0.00520   0.00545   0.00854   0.02377   0.02685
     Eigenvalues ---    0.04197   0.04512   0.04733   0.05022   0.05137
     Eigenvalues ---    0.05667   0.06036   0.06213   0.07142   0.07706
     Eigenvalues ---    0.07794   0.07869   0.08500   0.10440   0.11402
     Eigenvalues ---    0.11821   0.11929   0.12881   0.16415   0.16578
     Eigenvalues ---    0.22393   0.26610   0.27453   0.27738   0.28921
     Eigenvalues ---    0.29002   0.30310   0.34117   0.34126   0.34128
     Eigenvalues ---    0.34128   0.34128   0.34128   0.34129   0.34129
     Eigenvalues ---    0.34178   0.35137
 RFO step:  Lambda=-3.07190843D-04 EMin= 5.20481000D-03
 Quartic linear search produced a step of -0.02146.
 Iteration  1 RMS(Cart)=  0.01825906 RMS(Int)=  0.00021001
 Iteration  2 RMS(Cart)=  0.00022638 RMS(Int)=  0.00004739
 Iteration  3 RMS(Cart)=  0.00000002 RMS(Int)=  0.00004739
 Variable       Old X    -DE/DX   Delta X   Delta X   Delta X     New X
                                 (Linear)    (Quad)   (Total)
    R1        2.87792   0.00184   0.00006   0.00601   0.00606   2.88398
    R2        2.66634   0.00214   0.00123   0.00424   0.00548   2.67183
    R3        2.06537   0.00028  -0.00007   0.00086   0.00079   2.06616
    R4        2.08330   0.00143  -0.00020   0.00416   0.00396   2.08726
    R5        2.89527  -0.00085  -0.00015  -0.00054  -0.00070   2.89456
    R6        2.07104   0.00069  -0.00004   0.00196   0.00192   2.07296
    R7        2.07116  -0.00031   0.00002  -0.00087  -0.00085   2.07030
    R8        2.89509  -0.00081  -0.00015  -0.00043  -0.00060   2.89449
    R9        2.07634   0.00031  -0.00005   0.00090   0.00085   2.07719
   R10        2.06803   0.00011   0.00003   0.00027   0.00030   2.06833
   R11        2.87946   0.00152   0.00002   0.00475   0.00478   2.88424
   R12        2.07125  -0.00035   0.00002  -0.00099  -0.00097   2.07028
   R13        2.07104   0.00070  -0.00004   0.00199   0.00196   2.07299
   R14        2.66617   0.00220   0.00124   0.00441   0.00567   2.67184
   R15        2.08327   0.00143  -0.00020   0.00417   0.00397   2.08723
   R16        2.06534   0.00028  -0.00007   0.00086   0.00079   2.06614
    A1        1.94917  -0.00041  -0.00024  -0.00294  -0.00331   1.94586
    A2        1.95038  -0.00027   0.00010  -0.00367  -0.00353   1.94685
    A3        1.91480  -0.00020   0.00048  -0.00113  -0.00064   1.91416
    A4        1.85327   0.00028  -0.00048   0.00083   0.00038   1.85365
    A5        1.90587   0.00074  -0.00032   0.00962   0.00933   1.91519
    A6        1.88829  -0.00009   0.00043  -0.00232  -0.00190   1.88639
    A7        1.91157   0.00015  -0.00014   0.00591   0.00560   1.91718
    A8        1.88625   0.00046   0.00020   0.00717   0.00739   1.89363
    A9        1.92119  -0.00005  -0.00006  -0.00322  -0.00320   1.91799
   A10        1.91305  -0.00027   0.00000  -0.00064  -0.00065   1.91240
   A11        1.94880  -0.00018  -0.00030  -0.00562  -0.00586   1.94294
   A12        1.88174  -0.00008   0.00031  -0.00332  -0.00304   1.87870
   A13        1.90112   0.00074  -0.00035   0.01283   0.01230   1.91342
   A14        1.90173  -0.00012   0.00004   0.00064   0.00067   1.90240
   A15        1.94390  -0.00030  -0.00007  -0.00533  -0.00531   1.93859
   A16        1.90174  -0.00012   0.00005   0.00086   0.00090   1.90264
   A17        1.94383  -0.00028  -0.00006  -0.00538  -0.00536   1.93847
   A18        1.87057   0.00006   0.00041  -0.00375  -0.00337   1.86720
   A19        1.91185   0.00020  -0.00013   0.00565   0.00535   1.91720
   A20        1.94892  -0.00018  -0.00030  -0.00563  -0.00587   1.94305
   A21        1.91262  -0.00027   0.00001  -0.00016  -0.00016   1.91246
   A22        1.92193  -0.00013  -0.00008  -0.00382  -0.00383   1.91811
   A23        1.88573   0.00047   0.00020   0.00733   0.00754   1.89327
   A24        1.88151  -0.00006   0.00031  -0.00307  -0.00278   1.87873
   A25        1.94907  -0.00037  -0.00025  -0.00313  -0.00350   1.94557
   A26        1.91523  -0.00025   0.00047  -0.00147  -0.00098   1.91425
   A27        1.95011  -0.00030   0.00011  -0.00374  -0.00359   1.94651
   A28        1.90547   0.00078  -0.00032   0.01029   0.01000   1.91547
   A29        1.85351   0.00026  -0.00049   0.00072   0.00027   1.85378
   A30        1.88839  -0.00007   0.00043  -0.00225  -0.00184   1.88655
   A31        1.95719  -0.00085  -0.00108  -0.00690  -0.00810   1.94909
    D1       -0.99816  -0.00018  -0.00114   0.00813   0.00702  -0.99114
    D2        1.08507  -0.00015  -0.00110   0.01499   0.01391   1.09898
    D3        3.13603  -0.00001  -0.00064   0.01337   0.01276  -3.13440
    D4       -3.07135  -0.00008  -0.00043   0.01153   0.01110  -3.06025
    D5       -0.98812  -0.00005  -0.00040   0.01839   0.01800  -0.97012
    D6        1.06284   0.00009   0.00006   0.01677   0.01684   1.07968
    D7        1.11750   0.00034  -0.00138   0.01756   0.01617   1.13367
    D8       -3.08245   0.00037  -0.00134   0.02442   0.02307  -3.05939
    D9       -1.03149   0.00051  -0.00088   0.02280   0.02191  -1.00958
   D10        1.05395   0.00028   0.00067   0.01884   0.01946   1.07341
   D11       -3.09917  -0.00012   0.00035   0.01313   0.01344  -3.08572
   D12       -1.06689   0.00030   0.00044   0.01564   0.01609  -1.05080
   D13        0.94281   0.00012   0.00095  -0.03045  -0.02952   0.91329
   D14       -1.12980  -0.00010   0.00108  -0.03930  -0.03823  -1.16803
   D15        3.09351   0.00007   0.00059  -0.03191  -0.03135   3.06216
   D16       -1.12384  -0.00037   0.00079  -0.04232  -0.04152  -1.16536
   D17        3.08673  -0.00059   0.00092  -0.05117  -0.05022   3.03651
   D18        1.02686  -0.00041   0.00043  -0.04379  -0.04335   0.98351
   D19        3.07538   0.00003   0.00059  -0.03420  -0.03363   3.04175
   D20        1.00277  -0.00019   0.00072  -0.04305  -0.04234   0.96043
   D21       -1.05710  -0.00001   0.00023  -0.03566  -0.03547  -1.09257
   D22       -0.94208  -0.00016  -0.00097   0.02951   0.02856  -0.91352
   D23       -3.07587  -0.00001  -0.00059   0.03421   0.03365  -3.04222
   D24        1.12384   0.00036  -0.00080   0.04170   0.04089   1.16473
   D25        1.13053   0.00006  -0.00110   0.03822   0.03712   1.16765
   D26       -1.00326   0.00021  -0.00072   0.04292   0.04221  -0.96105
   D27       -3.08673   0.00058  -0.00093   0.05041   0.04945  -3.03728
   D28       -3.09283  -0.00011  -0.00061   0.03094   0.03036  -3.06247
   D29        1.05657   0.00004  -0.00022   0.03564   0.03545   1.09202
   D30       -1.02690   0.00041  -0.00043   0.04313   0.04270  -0.98421
   D31        0.99666   0.00021   0.00117  -0.00631  -0.00516   0.99150
   D32       -1.11872  -0.00036   0.00141  -0.01623  -0.01480  -1.13352
   D33        3.06990   0.00010   0.00046  -0.01001  -0.00955   3.06035
   D34       -3.13670   0.00003   0.00065  -0.01212  -0.01149   3.13499
   D35        1.03110  -0.00053   0.00090  -0.02205  -0.02114   1.00996
   D36       -1.06346  -0.00008  -0.00005  -0.01583  -0.01589  -1.07935
   D37       -1.08590   0.00015   0.00111  -0.01368  -0.01259  -1.09849
   D38        3.08190  -0.00041   0.00135  -0.02360  -0.02224   3.05967
   D39        0.98734   0.00004   0.00040  -0.01738  -0.01699   0.97035
   D40       -1.05293  -0.00033  -0.00068  -0.01990  -0.02055  -1.07348
   D41        1.06811  -0.00036  -0.00046  -0.01680  -0.01727   1.05084
   D42        3.10043   0.00009  -0.00037  -0.01393  -0.01426   3.08616
         Item               Value     Threshold  Converged?
 Maximum Force            0.002200     0.000450     NO 
 RMS     Force            0.000573     0.000300     NO 
 Maximum Displacement     0.074730     0.001800     NO 
 RMS     Displacement     0.018240     0.001200     NO 
 Predicted change in Energy=-1.592104D-04
 GradGradGradGradGradGradGradGradGradGradGradGradGradGradGradGradGradGrad

                          Input orientation:                          
 ---------------------------------------------------------------------
 Center     Atomic      Atomic             Coordinates (Angstroms)
 Number     Number       Type             X           Y           Z
 ---------------------------------------------------------------------
      1          6           0        1.374813   -0.041778   -0.239749
      2          6           0        0.720707    1.255469    0.227580
      3          6           0       -0.744341    1.289116   -0.218199
      4          6           0       -1.447627    0.003648    0.227966
      5          6           0       -0.651524   -1.211674   -0.239703
      6          8           0        0.678195   -1.174985    0.239406
      7          1           0        2.398474   -0.132487    0.133526
      8          1           0        1.409138   -0.064302   -1.343518
      9          1           0        0.772693    1.296654    1.322538
     10          1           0        1.276005    2.114980   -0.163740
     11          1           0       -0.783321    1.356584   -1.314633
     12          1           0       -1.255083    2.173752    0.174891
     13          1           0       -2.469908   -0.047408   -0.162608
     14          1           0       -1.508449   -0.020967    1.322982
     15          1           0       -0.649521   -1.252727   -1.343455
     16          1           0       -1.085051   -2.143275    0.133918
 ---------------------------------------------------------------------
                    Distance matrix (angstroms):
                    1          2          3          4          5
     1  C    0.000000
     2  C    1.526139   0.000000
     3  C    2.502510   1.531737   0.000000
     4  C    2.861292   2.503743   1.531698   0.000000
     5  C    2.339807   2.861497   2.502604   1.526271   0.000000
     6  O    1.413869   2.430855   2.881806   2.430726   1.413875
     7  H    1.093363   2.179488   3.467269   3.849668   3.256751
     8  H    1.104532   2.164275   2.781287   3.261179   2.604073
     9  H    2.143522   1.096964   2.162249   2.792807   3.280351
    10  H    2.160358   1.095558   2.183305   3.468332   3.845487
    11  H    2.787173   2.156559   1.099200   2.156699   2.787256
    12  H    3.463647   2.179396   1.094513   2.179275   3.463710
    13  H    3.845499   3.468394   2.183338   1.095543   2.160551
    14  H    3.279598   2.792549   2.162271   1.096980   2.143383
    15  H    2.604322   3.261399   2.781395   2.164444   1.104517
    16  H    3.256816   3.849805   3.467185   2.179355   1.093352
                    6          7          8          9         10
     6  O    0.000000
     7  H    2.014292   0.000000
     8  H    2.067255   1.779071   0.000000
     9  H    2.700204   2.469687   3.060248   0.000000
    10  H    3.368053   2.529706   2.481708   1.769746   0.000000
    11  H    3.310575   3.799778   2.612781   3.062588   2.478012
    12  H    3.867269   4.320755   3.796384   2.489633   2.554317
    13  H    3.368026   4.878122   4.054853   3.811381   4.325250
[...]
 H,0,-1.0857910829,-2.1428686342,0.1359308696
 Recover connectivity data from disk.
                          Input orientation:                          
 ---------------------------------------------------------------------
 Center     Atomic      Atomic             Coordinates (Angstroms)
 Number     Number       Type             X           Y           Z
 ---------------------------------------------------------------------
      1          6           0        1.375164   -0.041699   -0.239433
      2          6           0        0.719992    1.254660    0.228388
      3          6           0       -0.743327    1.287467   -0.219281
      4          6           0       -1.446648    0.003927    0.228612
      5          6           0       -0.651730   -1.211996   -0.238950
      6          8           0        0.679157   -1.176460    0.234538
      7          1           0        2.398561   -0.131352    0.134857
      8          1           0        1.410808   -0.062257   -1.343135
      9          1           0        0.772715    1.297339    1.323249
     10          1           0        1.273540    2.114626   -0.164689
     11          1           0       -0.783545    1.356977   -1.315655
     12          1           0       -1.253598    2.171511    0.176221
     13          1           0       -2.468228   -0.045421   -0.164322
     14          1           0       -1.509806   -0.020218    1.323490
     15          1           0       -0.652063   -1.253636   -1.342622
     16          1           0       -1.085791   -2.142869    0.135931
 ---------------------------------------------------------------------
                    Distance matrix (angstroms):
                    1          2          3          4          5
     1  C    0.000000
     2  C    1.525992   0.000000
     3  C    2.501019   1.530616   0.000000
     4  C    2.860730   2.501731   1.530603   0.000000
     5  C    2.340491   2.860841   2.501218   1.526099   0.000000
     6  O    1.413067   2.431471   2.881033   2.431543   1.413051
     7  H    1.093376   2.178846   3.465533   3.848730   3.257575
     8  H    1.104469   2.163603   2.779407   3.261875   2.606758
     9  H    2.144281   1.096961   2.162840   2.792260   3.281199
    10  H    2.160012   1.095659   2.180579   3.465424   3.844294
    11  H    2.788292   2.157581   1.099311   2.157594   2.788600
    12  H    3.461424   2.176785   1.094683   2.176794   3.461608
    13  H    3.844128   3.465426   2.180572   1.095654   2.160123
    14  H    3.281195   2.792232   2.162793   1.096964   2.144259
    15  H    2.606812   3.262231   2.779825   2.163702   1.104458
    16  H    3.257624   3.848714   3.465640   2.178885   1.093375
                    6          7          8          9         10
     6  O    0.000000
     7  H    2.014581   0.000000
     8  H    2.065385   1.779013   0.000000
     9  H    2.704391   2.469172   3.060272   0.000000
    10  H    3.368074   2.529786   2.479192   1.769956   0.000000
    11  H    3.310725   3.800645   2.613458   3.064199   2.475955
    12  H    3.866246   4.317772   3.794367   2.487125   2.550664
    13  H    3.368141   4.876733   4.054233   3.810457   4.320490
    14  H    2.704491   4.086628   3.955078   2.635500   3.810414
    15  H    2.065318   3.570542   2.382188   3.955292   4.054708
    16  H    2.014624   4.023296   3.570657   4.086416   4.876790
                   11         12         13         14         15
    11  H    0.000000
    12  H    1.763551   0.000000
    13  H    2.475974   2.550703   0.000000
    14  H    3.064182   2.487076   1.769970   0.000000
    15  H    2.614060   3.794780   2.479239   3.060261   0.000000
    16  H    3.800970   4.317830   2.529935   2.468953   1.779037
                   16
    16  H    0.000000
 Stoichiometry    C5H10O
 Framework group  C1[X(C5H10O)]
 Deg. of freedom    42
 Full point group                 C1      NOp   1
 Largest Abelian subgroup         C1      NOp   1
 Largest concise Abelian subgroup C1      NOp   1
                         Standard orientation:                         
 ---------------------------------------------------------------------
 Center     Atomic      Atomic             Coordinates (Angstroms)
 Number     Number       Type             X           Y           Z
 ---------------------------------------------------------------------
      1          6           0       -1.168901   -0.770355    0.202596
      2          6           0       -1.252050    0.691445   -0.227382
      3          6           0       -0.002499    1.441702    0.240078
      4          6           0        1.249677    0.695764   -0.227229
      5          6           0        1.171587   -0.766510    0.202461
      6          8           0        0.002346   -1.390603   -0.287538
      7          1           0       -2.009339   -1.351165   -0.187011
      8          1           0       -1.189548   -0.834691    1.304996
      9          1           0       -1.318951    0.730388   -1.321608
     10          1           0       -2.162241    1.147535    0.177590
     11          1           0       -0.002674    1.493483    1.338169
     12          1           0       -0.004272    2.472376   -0.128759
     13          1           0        2.158243    1.154957    0.177875
     14          1           0        1.316544    0.734999   -1.321450
     15          1           0        1.192637   -0.831045    1.304831
     16          1           0        2.013951   -1.344296   -0.187480
 ---------------------------------------------------------------------
 Rotational constants (GHZ):      4.7034386      4.5198170      2.6178715
 Standard basis: 6-311++G(d,p) (5D, 7F)
 There are   202 symmetry adapted basis functions of A   symmetry.
 Integral buffers will be    131072 words long.
 Raffenetti 2 integral format.
 Two-electron integral symmetry is turned on.
   202 basis functions,   306 primitive gaussians,   208 cartesian basis functions
    24 alpha electrons       24 beta electrons
       nuclear repulsion energy       260.6295340589 Hartrees.
 NAtoms=   16 NActive=   16 NUniq=   16 SFac= 1.00D+00 NAtFMM=   50 NAOKFM=F Big=F
 One-electron integrals computed using PRISM.
 NBasis=   202 RedAO= T  NBF=   202
 NBsUse=   202 1.00D-06 NBFU=   202
 Initial guess read from the checkpoint file:  /home/hmayes/gaussian/pucker/chks/1C400.chk
 B after Tr=     0.000000    0.000000    0.000000
         Rot=    1.000000    0.000000    0.000000    0.000000 Ang=   0.00 deg.
 Initial guess orbital symmetries:
       Occupied  (A) (A) (A) (A) (A) (A) (A) (A) (A) (A) (A) (A)
                 (A) (A) (A) (A) (A) (A) (A) (A) (A) (A) (A) (A)
       Virtual   (A) (A) (A) (A) (A) (A) (A) (A) (A) (A) (A) (A)
                 (A) (A) (A) (A) (A) (A) (A) (A) (A) (A) (A) (A)
                 (A) (A) (A) (A) (A) (A) (A) (A) (A) (A) (A) (A)
                 (A) (A) (A) (A) (A) (A) (A) (A) (A) (A) (A) (A)
                 (A) (A) (A) (A) (A) (A) (A) (A) (A) (A) (A) (A)
                 (A) (A) (A) (A) (A) (A) (A) (A) (A) (A) (A) (A)
                 (A) (A) (A) (A) (A) (A) (A) (A) (A) (A) (A) (A)
                 (A) (A) (A) (A) (A) (A) (A) (A) (A) (A) (A) (A)
                 (A) (A) (A) (A) (A) (A) (A) (A) (A) (A) (A) (A)
                 (A) (A) (A) (A) (A) (A) (A) (A) (A) (A) (A) (A)
                 (A) (A) (A) (A) (A) (A) (A) (A) (A) (A) (A) (A)
                 (A) (A) (A) (A) (A) (A) (A) (A) (A) (A) (A) (A)
                 (A) (A) (A) (A) (A) (A) (A) (A) (A) (A) (A) (A)
                 (A) (A) (A) (A) (A) (A) (A) (A) (A) (A) (A) (A)
                 (A) (A) (A) (A) (A) (A) (A) (A) (A) (A)
 Requested convergence on RMS density matrix=1.00D-08 within 128 cycles.
 Requested convergence on MAX density matrix=1.00D-06.
 Requested convergence on             energy=1.00D-06.
 No special actions if energy rises.
 Keep R1 ints in memory in canonical form, NReq=241092331.
 SCF Done:  E(RM062X) =  -271.718572636     A.U. after   11 cycles
             Convg  =    0.3620D-08             -V/T =  2.0042

 **********************************************************************

            Population analysis using the SCF density.

 **********************************************************************

 Orbital symmetries:
       Occupied  (A) (A) (A) (A) (A) (A) (A) (A) (A) (A) (A) (A)
                 (A) (A) (A) (A) (A) (A) (A) (A) (A) (A) (A) (A)
       Virtual   (A) (A) (A) (A) (A) (A) (A) (A) (A) (A) (A) (A)
                 (A) (A) (A) (A) (A) (A) (A) (A) (A) (A) (A) (A)
                 (A) (A) (A) (A) (A) (A) (A) (A) (A) (A) (A) (A)
                 (A) (A) (A) (A) (A) (A) (A) (A) (A) (A) (A) (A)
                 (A) (A) (A) (A) (A) (A) (A) (A) (A) (A) (A) (A)
                 (A) (A) (A) (A) (A) (A) (A) (A) (A) (A) (A) (A)
                 (A) (A) (A) (A) (A) (A) (A) (A) (A) (A) (A) (A)
                 (A) (A) (A) (A) (A) (A) (A) (A) (A) (A) (A) (A)
                 (A) (A) (A) (A) (A) (A) (A) (A) (A) (A) (A) (A)
                 (A) (A) (A) (A) (A) (A) (A) (A) (A) (A) (A) (A)
                 (A) (A) (A) (A) (A) (A) (A) (A) (A) (A) (A) (A)
                 (A) (A) (A) (A) (A) (A) (A) (A) (A) (A) (A) (A)
                 (A) (A) (A) (A) (A) (A) (A) (A) (A) (A) (A) (A)
                 (A) (A) (A) (A) (A) (A) (A) (A) (A) (A) (A) (A)
                 (A) (A) (A) (A) (A) (A) (A) (A) (A) (A)
 The electronic state is 1-A.
 Alpha  occ. eigenvalues --  -19.61882 -10.57900 -10.57899 -10.53568 -10.53253
 Alpha  occ. eigenvalues --  -10.53250  -1.15927  -0.90025  -0.86016  -0.73041
 Alpha  occ. eigenvalues --   -0.72214  -0.64595  -0.57366  -0.54387  -0.52452
 Alpha  occ. eigenvalues --   -0.51441  -0.48476  -0.45178  -0.45077  -0.41377
 Alpha  occ. eigenvalues --   -0.39837  -0.38087  -0.36473  -0.31852
 Alpha virt. eigenvalues --   -0.00057   0.01231   0.01256   0.01830   0.03854
 Alpha virt. eigenvalues --    0.03960   0.04133   0.04536   0.05022   0.07345
 Alpha virt. eigenvalues --    0.08374   0.09879   0.10287   0.11140   0.11172
 Alpha virt. eigenvalues --    0.11953   0.13014   0.13433   0.13907   0.14108
 Alpha virt. eigenvalues --    0.14394   0.15481   0.16047   0.16315   0.16486
 Alpha virt. eigenvalues --    0.16939   0.17183   0.17803   0.18297   0.19619
 Alpha virt. eigenvalues --    0.22076   0.22578   0.25948   0.25978   0.27279
 Alpha virt. eigenvalues --    0.27917   0.27992   0.29043   0.30420   0.32778
 Alpha virt. eigenvalues --    0.33368   0.33563   0.34720   0.35941   0.36562
 Alpha virt. eigenvalues --    0.37451   0.37467   0.37863   0.38926   0.41969
 Alpha virt. eigenvalues --    0.48518   0.48824   0.50935   0.51011   0.53376
 Alpha virt. eigenvalues --    0.57350   0.60261   0.63448   0.64250   0.66246
 Alpha virt. eigenvalues --    0.67747   0.68916   0.70108   0.71558   0.72321
 Alpha virt. eigenvalues --    0.73119   0.73706   0.73803   0.75730   0.78074
 Alpha virt. eigenvalues --    0.78382   0.79966   0.80036   0.81417   0.91659
 Alpha virt. eigenvalues --    0.92671   0.95253   1.02930   1.04608   1.07894
 Alpha virt. eigenvalues --    1.11709   1.11920   1.17683   1.25295   1.26882
 Alpha virt. eigenvalues --    1.27241   1.31957   1.34461   1.38886   1.45919
 Alpha virt. eigenvalues --    1.49950   1.55333   1.57784   1.59092   1.59594
 Alpha virt. eigenvalues --    1.61702   1.62198   1.63715   1.64630   1.64699
 Alpha virt. eigenvalues --    1.65344   1.68082   1.72068   1.74124   1.75942
 Alpha virt. eigenvalues --    1.77221   1.77476   1.79330   1.82353   1.82809
 Alpha virt. eigenvalues --    1.84013   1.87460   1.89624   1.90291   1.91395
 Alpha virt. eigenvalues --    2.02003   2.02698   2.07426   2.08328   2.18375
 Alpha virt. eigenvalues --    2.20034   2.22568   2.22954   2.25801   2.31255
 Alpha virt. eigenvalues --    2.31963   2.36336   2.37560   2.44708   2.49034
 Alpha virt. eigenvalues --    2.52880   2.54518   2.55816   2.58018   2.63269
 Alpha virt. eigenvalues --    2.64945   2.68757   2.69864   2.72449   2.74821
 Alpha virt. eigenvalues --    2.76293   2.79668   2.81018   2.85062   2.88786
 Alpha virt. eigenvalues --    2.89090   2.90340   2.96621   2.99987   3.01821
 Alpha virt. eigenvalues --    3.04447   3.12052   3.16839   3.26734   3.29495
 Alpha virt. eigenvalues --    3.37599   3.41372   3.47160   3.80950   3.82466
 Alpha virt. eigenvalues --    3.87976   3.88490   3.92651   4.08495   4.12747
 Alpha virt. eigenvalues --    4.18879   4.20506   4.35790   4.37600   5.25789
 Alpha virt. eigenvalues --    5.51776   5.78595  23.90822  23.97406  23.98630
 Alpha virt. eigenvalues --   24.00949  24.03005  50.05630
          Condensed to atoms (all electrons):
              1          2          3          4          5          6
     1  C    5.801931   0.037658  -0.232717   0.217085  -0.290173   0.202531
     2  C    0.037658   5.605250   0.000940  -0.111381   0.216916  -0.083245
     3  C   -0.232717   0.000940   5.878707   0.000678  -0.232452  -0.011126
     4  C    0.217085  -0.111381   0.000678   5.605446   0.037621  -0.083214
     5  C   -0.290173   0.216916  -0.232452   0.037621   5.801775   0.202496
     6  O    0.202531  -0.083245  -0.011126  -0.083214   0.202496   8.095939
     7  H    0.426252  -0.034433  -0.001322  -0.004143   0.025357  -0.084412
     8  H    0.364325  -0.065189   0.043043  -0.010180  -0.036014  -0.038627
     9  H   -0.135187   0.488304   0.047650  -0.054392  -0.016342   0.001054
    10  H    0.002945   0.376753  -0.073434   0.022401   0.000990   0.010437
    11  H   -0.031911  -0.062394   0.561712  -0.062476  -0.031861  -0.000276
    12  H    0.014858  -0.030481   0.347607  -0.030428   0.014846   0.006219
    13  H    0.000979   0.022387  -0.073392   0.376767   0.002916   0.010434
    14  H   -0.016342  -0.054370   0.047598   0.488293  -0.135148   0.001057
    15  H   -0.036026  -0.010181   0.043009  -0.065203   0.364422  -0.038647
    16  H    0.025366  -0.004147  -0.001307  -0.034423   0.426209  -0.084410
              7          8          9         10         11         12
     1  C    0.426252   0.364325  -0.135187   0.002945  -0.031911   0.014858
     2  C   -0.034433  -0.065189   0.488304   0.376753  -0.062394  -0.030481
     3  C   -0.001322   0.043043   0.047650  -0.073434   0.561712   0.347607
     4  C   -0.004143  -0.010180  -0.054392   0.022401  -0.062476  -0.030428
     5  C    0.025357  -0.036014  -0.016342   0.000990  -0.031861   0.014846
     6  O   -0.084412  -0.038627   0.001054   0.010437  -0.000276   0.006219
     7  H    0.515203  -0.025975  -0.007657  -0.004621  -0.000168  -0.002423
     8  H   -0.025975   0.595018   0.003153   0.002475  -0.011332   0.008797
     9  H   -0.007657   0.003153   0.510994  -0.022468   0.004806  -0.003627
    10  H   -0.004621   0.002475  -0.022468   0.531187  -0.009185  -0.004113
    11  H   -0.000168  -0.011332   0.004806  -0.009185   0.503939  -0.027196
    12  H   -0.002423   0.008797  -0.003627  -0.004113  -0.027196   0.542529
    13  H    0.001132   0.000009  -0.005203   0.001927  -0.009178  -0.004123
    14  H   -0.000974   0.002584   0.009141  -0.005205   0.004804  -0.003632
    15  H   -0.007670   0.029699   0.002582   0.000011  -0.011326   0.008795
    16  H    0.002488  -0.007673  -0.000973   0.001132  -0.000167  -0.002426
             13         14         15         16
     1  C    0.000979  -0.016342  -0.036026   0.025366
     2  C    0.022387  -0.054370  -0.010181  -0.004147
     3  C   -0.073392   0.047598   0.043009  -0.001307
     4  C    0.376767   0.488293  -0.065203  -0.034423
     5  C    0.002916  -0.135148   0.364422   0.426209
     6  O    0.010434   0.001057  -0.038647  -0.084410
     7  H    0.001132  -0.000974  -0.007670   0.002488
     8  H    0.000009   0.002584   0.029699  -0.007673
     9  H   -0.005203   0.009141   0.002582  -0.000973
    10  H    0.001927  -0.005205   0.000011   0.001132
    11  H   -0.009178   0.004804  -0.011326  -0.000167
    12  H   -0.004123  -0.003632   0.008795  -0.002426
    13  H    0.531167  -0.022446   0.002481  -0.004623
    14  H   -0.022446   0.510983   0.003145  -0.007654
    15  H    0.002481   0.003145   0.594985  -0.025980
    16  H   -0.004623  -0.007654  -0.025980   0.515244
 Mulliken atomic charges:
              1
     1  C   -0.351576
     2  C   -0.292387
     3  C   -0.345195
     4  C   -0.292452
     5  C   -0.351558
     6  O   -0.106209
     7  H    0.203367
     8  H    0.145886
     9  H    0.178166
    10  H    0.168769
    11  H    0.182209
    12  H    0.164798
    13  H    0.168767
    14  H    0.178164
    15  H    0.145907
    16  H    0.203344
 Sum of Mulliken atomic charges =   0.00000
 Mulliken charges with hydrogens summed into heavy atoms:
              1
     1  C   -0.002324
     2  C    0.054548
     3  C    0.001812
     4  C    0.054479
     5  C   -0.002307
     6  O   -0.106209
 Sum of Mulliken charges with hydrogens summed into heavy atoms =   0.00000
 Electronic spatial extent (au):  <R**2>=            542.8075
 Charge=              0.0000 electrons
 Dipole moment (field-independent basis, Debye):
    X=             -0.0025    Y=              1.4532    Z=              0.7528  Tot=              1.6366
 Quadrupole moment (field-independent basis, Debye-Ang):
   XX=            -35.6681   YY=            -41.8162   ZZ=            -38.7931
   XY=              0.0100   XZ=              0.0019   YZ=             -1.3015
 Traceless Quadrupole moment (field-independent basis, Debye-Ang):
   XX=              3.0911   YY=             -3.0571   ZZ=             -0.0340
   XY=              0.0100   XZ=              0.0019   YZ=             -1.3015
 Octapole moment (field-independent basis, Debye-Ang**2):
  XXX=              0.0256  YYY=              1.6817  ZZZ=             -0.9081  XYY=             -0.0201
  XXY=             -5.1103  XXZ=             -0.7517  XZZ=              0.0018  YZZ=             -1.0091
  YYZ=              0.7684  XYZ=             -0.0018
 Hexadecapole moment (field-independent basis, Debye-Ang**3):
 XXXX=           -320.9012 YYYY=           -326.4312 ZZZZ=            -91.4311 XXXY=             -0.0248
 XXXZ=             -0.0214 YYYX=              0.0421 YYYZ=             -2.0069 ZZZX=              0.0011
 ZZZY=             -0.6483 XXYY=           -101.3330 XXZZ=            -71.0626 YYZZ=            -69.9751
 XXYZ=              3.9993 YYXZ=              0.0167 ZZXY=             -0.0013
 N-N= 2.606295340589D+02 E-N=-1.153995901367D+03  KE= 2.705851078775D+02
 1\1\GINC-RR46\SP\RM062X\6-311++G(d,p)\C5H10O1\HMAYES\05-Jun-2012\0\\# 
 m062x/6-311++G(d,p) geom=allcheck guess=read\\from http://6ring.bio.nr
 c.ca/suppl.html\\0,1\C,0,1.3751643049,-0.0416989243,-0.2394325484\C,0,
 0.7199915633,1.2546595268,0.2283876427\C,0,-0.743327092,1.2874673187,-
 0.2192806556\C,0,-1.4466484856,0.003927235,0.2286121515\C,0,-0.6517300
 236,-1.2119959738,-0.2389495135\O,0,0.6791571157,-1.1764604139,0.23453
 83591\H,0,2.398560523,-0.1313515745,0.134856908\H,0,1.4108081644,-0.06
 22566819,-1.3431348127\H,0,0.7727146229,1.2973392967,1.3232488618\H,0,
 1.2735401717,2.1146262325,-0.1646894066\H,0,-0.7835445947,1.3569767619
 ,-1.3156549907\H,0,-1.253598313,2.1715109997,0.176221314\H,0,-2.468227
 9982,-0.0454212843,-0.1643224168\H,0,-1.5098058442,-0.0202182736,1.323
 4902206\H,0,-0.6520630318,-1.2536356107,-1.342621983\H,0,-1.0857910829
 ,-2.1428686342,0.1359308696\\Version=EM64L-G09RevB.01\State=1-A\HF=-27
 1.7185726\RMSD=3.620e-09\Dipole=-0.2896449,0.5016212,-0.2812217\Quadru
 pole=1.1429293,-1.166439,0.0235096,2.0005759,-0.4544335,0.7860503\PG=C
 01 [X(C5H10O1)]\\@


 GARLIC THEN HAVE POWER TO SAVE FROM DEATH
 BEAR WITH IT THOUGH IT MAKETH UNSAVORY BREATH,
 AND SCORN NOT GARLIC LIKE SOME THAT THINK
 IT ONLY MAKETH MEN WINK AND DRINK AND STINK.
   --  SIR JOHN HARRINGTON,
       "THE ENGLISHMAN'S DOCTOR", 1609
 Job cpu time:  0 days  0 hours  4 minutes 16.2 seconds.
 File lengths (MBytes):  RWF=     21 Int=      0 D2E=      0 Chk=      3 Scr=      1
 Normal termination of Gaussian 09 at Tue Jun  5 17:41:12 2012.
