 Entering Gaussian System, Link 0=g09
 Initial command:
 /projects/nrel/apps/gaussian/g09/B.01/g09/l1.exe /scratch/hmayes/1E00/Gau-2356.inp -scrdir=/scratch/hmayes/1E00/
 Default is to use a total of   8 processors:
                                8 via shared-memory
                                1 via Linda
 Entering Link 1 = /projects/nrel/apps/gaussian/g09/B.01/g09/l1.exe PID=      2357.
  
 Copyright (c) 1988,1990,1992,1993,1995,1998,2003,2009,2010,
            Gaussian, Inc.  All Rights Reserved.
  
 This is part of the Gaussian(R) 09 program.  It is based on
 the Gaussian(R) 03 system (copyright 2003, Gaussian, Inc.),
 the Gaussian(R) 98 system (copyright 1998, Gaussian, Inc.),
 the Gaussian(R) 94 system (copyright 1995, Gaussian, Inc.),
 the Gaussian 92(TM) system (copyright 1992, Gaussian, Inc.),
 the Gaussian 90(TM) system (copyright 1990, Gaussian, Inc.),
 the Gaussian 88(TM) system (copyright 1988, Gaussian, Inc.),
 the Gaussian 86(TM) system (copyright 1986, Carnegie Mellon
 University), and the Gaussian 82(TM) system (copyright 1983,
 Carnegie Mellon University). Gaussian is a federally registered
 trademark of Gaussian, Inc.
  
 This software contains proprietary and confidential information,
 including trade secrets, belonging to Gaussian, Inc.
  
 This software is provided under written license and may be
 used, copied, transmitted, or stored only in accord with that
 written license.
  
 The following legend is applicable only to US Government
 contracts under FAR:
  
                    RESTRICTED RIGHTS LEGEND
  
 Use, reproduction and disclosure by the US Government is
 subject to restrictions as set forth in subparagraphs (a)
 and (c) of the Commercial Computer Software - Restricted
 Rights clause in FAR 52.227-19.
  
 Gaussian, Inc.
 340 Quinnipiac St., Bldg. 40, Wallingford CT 06492
  
  
 ---------------------------------------------------------------
 Warning -- This program may not be used in any manner that
 competes with the business of Gaussian, Inc. or will provide
 assistance to any competitor of Gaussian, Inc.  The licensee
 of this program is prohibited from giving any competitor of
 Gaussian, Inc. access to this program.  By using this program,
 the user acknowledges that Gaussian, Inc. is engaged in the
 business of creating and licensing software in the field of
 computational chemistry and represents and warrants to the
 licensee that it is not a competitor of Gaussian, Inc. and that
 it will not use this program in any manner prohibited above.
 ---------------------------------------------------------------
  

 Cite this work as:
 Gaussian 09, Revision B.01,
 M. J. Frisch, G. W. Trucks, H. B. Schlegel, G. E. Scuseria, 
 M. A. Robb, J. R. Cheeseman, G. Scalmani, V. Barone, B. Mennucci, 
 G. A. Petersson, H. Nakatsuji, M. Caricato, X. Li, H. P. Hratchian, 
 A. F. Izmaylov, J. Bloino, G. Zheng, J. L. Sonnenberg, M. Hada, 
 M. Ehara, K. Toyota, R. Fukuda, J. Hasegawa, M. Ishida, T. Nakajima, 
 Y. Honda, O. Kitao, H. Nakai, T. Vreven, J. A. Montgomery, Jr., 
 J. E. Peralta, F. Ogliaro, M. Bearpark, J. J. Heyd, E. Brothers, 
 K. N. Kudin, V. N. Staroverov, T. Keith, R. Kobayashi, J. Normand, 
 K. Raghavachari, A. Rendell, J. C. Burant, S. S. Iyengar, J. Tomasi, 
 M. Cossi, N. Rega, J. M. Millam, M. Klene, J. E. Knox, J. B. Cross, 
 V. Bakken, C. Adamo, J. Jaramillo, R. Gomperts, R. E. Stratmann, 
 O. Yazyev, A. J. Austin, R. Cammi, C. Pomelli, J. W. Ochterski, 
 R. L. Martin, K. Morokuma, V. G. Zakrzewski, G. A. Voth, 
 P. Salvador, J. J. Dannenberg, S. Dapprich, A. D. Daniels, 
 O. Farkas, J. B. Foresman, J. V. Ortiz, J. Cioslowski, 
 and D. J. Fox, Gaussian, Inc., Wallingford CT, 2010.
 
 ******************************************
 Gaussian 09:  EM64L-G09RevB.01 12-Aug-2010
                 6-Jun-2012 
 ******************************************
 %chk=/home/hmayes/gaussian/pucker/chks/1E00.chk
 %mem=10GB
 %nproc=8
 Will use up to    8 processors via shared memory.
 Default route:  MaxDisk=16GB
 -------------------------
 # opt freq m062x/6-31G(d)
 -------------------------
 1/14=-1,18=20,19=15,26=3,38=1/1,3;
 2/9=110,12=2,17=6,18=5,40=1/2;
 3/5=1,6=6,7=1,11=2,16=1,25=1,30=1,71=1,74=-55/1,2,3;
 4//1;
 5/5=2,38=5/2;
 6/7=2,8=2,9=2,10=2,28=1/1;
 7//1,2,3,16;
 1/14=-1,18=20,19=15/3(2);
 2/9=110/2;
 99//99;
 2/9=110/2;
 3/5=1,6=6,7=1,11=2,16=1,25=1,30=1,71=1,74=-55/1,2,3;
 4/5=5,16=3/1;
 5/5=2,38=5/2;
 7//1,2,3,16;
 1/14=-1,18=20,19=15/3(-5);
 2/9=110/2;
 6/7=2,8=2,9=2,10=2,19=2,28=1/1;
 99/9=1/99;
 ---------------------------------------
 from http://6ring.bio.nrc.ca/suppl.html
 ---------------------------------------
 Symbolic Z-matrix:
 Charge =  0 Multiplicity = 1
 C                     1.289     0.       -0.328 
 C                     0.708     1.146     0.228 
 C                    -0.671     1.212    -0.004 
 C                    -1.363     0.       -0.12 
 C                    -0.671    -1.212    -0.004 
 O                     0.708    -1.146     0.228 
 H                    -1.1183   -1.7678    0.828 
 H                    -0.8214   -1.7672   -0.9369 
 H                    -1.8391    0.       -1.1072 
 H                    -2.135     0.        0.658 
 H                    -1.1183    1.7678    0.828 
 H                    -0.8214    1.7672   -0.9369 
 H                     0.8829    1.1396    1.3099 
 H                     1.1818    2.0302   -0.2134 
 H                     2.3649    0.       -0.119 
 H                     1.1275    0.       -1.412 
 

 GradGradGradGradGradGradGradGradGradGradGradGradGradGradGradGradGradGrad
 Berny optimization.
 Initialization pass.
                           ----------------------------
                           !    Initial Parameters    !
                           ! (Angstroms and Degrees)  !
 --------------------------                            --------------------------
 ! Name  Definition              Value          Derivative Info.                !
 --------------------------------------------------------------------------------
 ! R1    R(1,2)                  1.4            estimate D2E/DX2                !
 ! R2    R(1,6)                  1.4            estimate D2E/DX2                !
 ! R3    R(1,15)                 1.096          estimate D2E/DX2                !
 ! R4    R(1,16)                 1.096          estimate D2E/DX2                !
 ! R5    R(2,3)                  1.3999         estimate D2E/DX2                !
 ! R6    R(2,13)                 1.096          estimate D2E/DX2                !
 ! R7    R(2,14)                 1.096          estimate D2E/DX2                !
 ! R8    R(3,4)                  1.4005         estimate D2E/DX2                !
 ! R9    R(3,11)                 1.096          estimate D2E/DX2                !
 ! R10   R(3,12)                 1.096          estimate D2E/DX2                !
 ! R11   R(4,5)                  1.4005         estimate D2E/DX2                !
 ! R12   R(4,9)                  1.096          estimate D2E/DX2                !
 ! R13   R(4,10)                 1.096          estimate D2E/DX2                !
 ! R14   R(5,6)                  1.3999         estimate D2E/DX2                !
 ! R15   R(5,7)                  1.096          estimate D2E/DX2                !
 ! R16   R(5,8)                  1.096          estimate D2E/DX2                !
 ! A1    A(2,1,6)              109.8835         estimate D2E/DX2                !
 ! A2    A(2,1,15)             109.3691         estimate D2E/DX2                !
 ! A3    A(2,1,16)             109.3691         estimate D2E/DX2                !
 ! A4    A(6,1,15)             109.3691         estimate D2E/DX2                !
 ! A5    A(6,1,16)             109.3691         estimate D2E/DX2                !
 ! A6    A(15,1,16)            109.467          estimate D2E/DX2                !
 ! A7    A(1,2,3)              112.4309         estimate D2E/DX2                !
 ! A8    A(1,2,13)             108.7257         estimate D2E/DX2                !
 ! A9    A(1,2,14)             108.7262         estimate D2E/DX2                !
 ! A10   A(3,2,13)             108.7276         estimate D2E/DX2                !
 ! A11   A(3,2,14)             108.7276         estimate D2E/DX2                !
 ! A12   A(13,2,14)            109.4694         estimate D2E/DX2                !
 ! A13   A(2,3,4)              117.3653         estimate D2E/DX2                !
 ! A14   A(2,3,11)             107.4649         estimate D2E/DX2                !
 ! A15   A(2,3,12)             107.4649         estimate D2E/DX2                !
 ! A16   A(4,3,11)             107.4632         estimate D2E/DX2                !
 ! A17   A(4,3,12)             107.4635         estimate D2E/DX2                !
 ! A18   A(11,3,12)            109.4672         estimate D2E/DX2                !
 ! A19   A(3,4,5)              119.8649         estimate D2E/DX2                !
 ! A20   A(3,4,9)              106.8132         estimate D2E/DX2                !
 ! A21   A(3,4,10)             106.813          estimate D2E/DX2                !
 ! A22   A(5,4,9)              106.8132         estimate D2E/DX2                !
 ! A23   A(5,4,10)             106.813          estimate D2E/DX2                !
 ! A24   A(9,4,10)             109.475          estimate D2E/DX2                !
 ! A25   A(4,5,6)              117.3653         estimate D2E/DX2                !
 ! A26   A(4,5,7)              107.4632         estimate D2E/DX2                !
 ! A27   A(4,5,8)              107.4635         estimate D2E/DX2                !
 ! A28   A(6,5,7)              107.4649         estimate D2E/DX2                !
 ! A29   A(6,5,8)              107.4649         estimate D2E/DX2                !
 ! A30   A(7,5,8)              109.4672         estimate D2E/DX2                !
 ! A31   A(1,6,5)              112.4309         estimate D2E/DX2                !
 ! D1    D(6,1,2,3)            -60.0348         estimate D2E/DX2                !
 ! D2    D(6,1,2,13)            60.4091         estimate D2E/DX2                !
 ! D3    D(6,1,2,14)           179.5209         estimate D2E/DX2                !
 ! D4    D(15,1,2,3)           179.9004         estimate D2E/DX2                !
 ! D5    D(15,1,2,13)          -59.6557         estimate D2E/DX2                !
 ! D6    D(15,1,2,14)           59.4561         estimate D2E/DX2                !
 ! D7    D(16,1,2,3)            60.0301         estimate D2E/DX2                !
 ! D8    D(16,1,2,13)         -179.526          estimate D2E/DX2                !
 ! D9    D(16,1,2,14)          -60.4142         estimate D2E/DX2                !
 ! D10   D(2,1,6,5)             60.0348         estimate D2E/DX2                !
 ! D11   D(15,1,6,5)          -179.9004         estimate D2E/DX2                !
 ! D12   D(16,1,6,5)           -60.0301         estimate D2E/DX2                !
 ! D13   D(1,2,3,4)             29.8988         estimate D2E/DX2                !
 ! D14   D(1,2,3,11)           151.0355         estimate D2E/DX2                !
 ! D15   D(1,2,3,12)           -91.2383         estimate D2E/DX2                !
 ! D16   D(13,2,3,4)           -90.544          estimate D2E/DX2                !
 ! D17   D(13,2,3,11)           30.5927         estimate D2E/DX2                !
 ! D18   D(13,2,3,12)          148.3189         estimate D2E/DX2                !
 ! D19   D(14,2,3,4)           150.3423         estimate D2E/DX2                !
 ! D20   D(14,2,3,11)          -88.521          estimate D2E/DX2                !
 ! D21   D(14,2,3,12)           29.2052         estimate D2E/DX2                !
 ! D22   D(2,3,4,5)             -0.0381         estimate D2E/DX2                !
 ! D23   D(2,3,4,9)           -121.5013         estimate D2E/DX2                !
 ! D24   D(2,3,4,10)           121.4246         estimate D2E/DX2                !
 ! D25   D(11,3,4,5)          -121.1757         estimate D2E/DX2                !
 ! D26   D(11,3,4,9)           117.3611         estimate D2E/DX2                !
 ! D27   D(11,3,4,10)            0.287          estimate D2E/DX2                !
 ! D28   D(12,3,4,5)           121.0998         estimate D2E/DX2                !
 ! D29   D(12,3,4,9)            -0.3635         estimate D2E/DX2                !
 ! D30   D(12,3,4,10)         -117.4375         estimate D2E/DX2                !
 ! D31   D(3,4,5,6)              0.0381         estimate D2E/DX2                !
 ! D32   D(3,4,5,7)            121.1757         estimate D2E/DX2                !
 ! D33   D(3,4,5,8)           -121.0998         estimate D2E/DX2                !
 ! D34   D(9,4,5,6)            121.5013         estimate D2E/DX2                !
 ! D35   D(9,4,5,7)           -117.3611         estimate D2E/DX2                !
 ! D36   D(9,4,5,8)              0.3635         estimate D2E/DX2                !
 ! D37   D(10,4,5,6)          -121.4246         estimate D2E/DX2                !
 ! D38   D(10,4,5,7)            -0.287          estimate D2E/DX2                !
 ! D39   D(10,4,5,8)           117.4375         estimate D2E/DX2                !
 ! D40   D(4,5,6,1)            -29.8988         estimate D2E/DX2                !
 ! D41   D(7,5,6,1)           -151.0355         estimate D2E/DX2                !
 ! D42   D(8,5,6,1)             91.2383         estimate D2E/DX2                !
 --------------------------------------------------------------------------------
 Trust Radius=3.00D-01 FncErr=1.00D-07 GrdErr=1.00D-06
 Number of steps in this run=     99 maximum allowed number of steps=    100.
 GradGradGradGradGradGradGradGradGradGradGradGradGradGradGradGradGradGrad

                          Input orientation:                          
 ---------------------------------------------------------------------
 Center     Atomic      Atomic             Coordinates (Angstroms)
 Number     Number       Type             X           Y           Z
 ---------------------------------------------------------------------
      1          6           0        1.289000    0.000000   -0.328000
      2          6           0        0.708000    1.146000    0.228000
      3          6           0       -0.671000    1.212000   -0.004000
      4          6           0       -1.363000    0.000000   -0.120000
      5          6           0       -0.671000   -1.212000   -0.004000
      6          8           0        0.708000   -1.146000    0.228000
      7          1           0       -1.118300   -1.767800    0.828000
      8          1           0       -0.821400   -1.767200   -0.936900
      9          1           0       -1.839100    0.000000   -1.107200
     10          1           0       -2.135000    0.000000    0.658000
     11          1           0       -1.118300    1.767800    0.828000
     12          1           0       -0.821400    1.767200   -0.936900
     13          1           0        0.882900    1.139600    1.309900
     14          1           0        1.181800    2.030200   -0.213400
     15          1           0        2.364900    0.000000   -0.119000
     16          1           0        1.127500    0.000000   -1.412000
 ---------------------------------------------------------------------
                    Distance matrix (angstroms):
                    1          2          3          4          5
     1  C    0.000000
     2  C    1.400005   0.000000
     3  C    2.327127   1.399936   0.000000
     4  C    2.660144   2.392376   1.400451   0.000000
     5  C    2.327127   2.741465   2.424000   1.400451   0.000000
     6  O    1.400005   2.292000   2.741465   2.392376   1.399936
     7  H    3.202584   3.490788   3.125941   2.020816   1.096000
     8  H    2.819139   3.490385   3.125469   2.020805   1.095979
     9  H    3.223688   3.095770   2.012573   1.096009   2.012573
    10  H    3.563141   3.095297   2.012581   1.096024   2.012581
    11  H    3.202584   2.020398   1.096000   2.020816   3.125941
    12  H    2.819139   2.020383   1.095979   2.020805   3.125469
    13  H    2.036252   1.095965   2.036217   2.896095   3.109817
    14  H    2.036256   1.095961   2.036214   3.256753   3.740131
    15  H    1.096012   2.044271   3.270911   3.727900   3.270911
    16  H    1.095965   2.044235   2.585732   2.805682   2.585732
                    6          7          8          9         10
     6  O    0.000000
     7  H    2.020398   0.000000
     8  H    2.020383   1.789699   0.000000
     9  H    3.095770   2.718394   2.046390   0.000000
    10  H    3.095297   2.046386   2.718869   1.789829   0.000000
    11  H    3.490788   3.535600   3.962227   2.718394   2.046386
    12  H    3.490385   3.962227   3.534400   2.046390   2.718869
    13  H    2.534771   3.562303   4.049967   3.814491   3.291107
    14  H    3.241538   4.560677   4.353907   3.747856   3.985249
    15  H    2.044271   4.019280   3.734229   4.318583   4.566490
    16  H    2.044235   3.631299   2.673374   2.982217   3.863781
                   11         12         13         14         15
    11  H    0.000000
    12  H    1.789699   0.000000
    13  H    2.152130   2.889054   0.000000
    14  H    2.538470   2.146027   1.789679   0.000000
    15  H    4.019280   3.734229   2.353034   2.351669   0.000000
    16  H    3.631299   2.673374   2.960955   2.358241   1.789695
                   16
    16  H    0.000000
 Stoichiometry    C5H10O
 Framework group  C1[X(C5H10O)]
 Deg. of freedom    42
 Full point group                 C1      NOp   1
 Largest Abelian subgroup         C1      NOp   1
 Largest concise Abelian subgroup C1      NOp   1
                         Standard orientation:                         
 ---------------------------------------------------------------------
 Center     Atomic      Atomic             Coordinates (Angstroms)
 Number     Number       Type             X           Y           Z
 ---------------------------------------------------------------------
      1          6           0       -0.962751   -0.884183    0.315834
      2          6           0       -1.293954    0.363274   -0.226541
      3          6           0       -0.304283    1.326044    0.004645
      4          6           0        1.018785    0.878009    0.104739
      5          6           0        1.304637   -0.486756   -0.025526
      6          8           0        0.227351   -1.350809   -0.255068
      7          1           0        2.000479   -0.598396   -0.864903
      8          1           0        1.794159   -0.810086    0.900215
      9          1           0        1.383884    1.185627    1.091303
     10          1           0        1.589055    1.397105   -0.674106
     11          1           0       -0.346260    2.045720   -0.820897
     12          1           0       -0.551784    1.833132    0.944206
     13          1           0       -1.430402    0.251616   -1.308231
     14          1           0       -2.231160    0.706249    0.226386
     15          1           0       -1.769329   -1.596591    0.108112
     16          1           0       -0.832057   -0.786225    1.399560
 ---------------------------------------------------------------------
 Rotational constants (GHZ):      5.0749859      4.9738463      2.8372079
 Standard basis: 6-31G(d) (6D, 7F)
 There are   110 symmetry adapted basis functions of A   symmetry.
 Integral buffers will be    131072 words long.
 Raffenetti 2 integral format.
 Two-electron integral symmetry is turned on.
   110 basis functions,   208 primitive gaussians,   110 cartesian basis functions
    24 alpha electrons       24 beta electrons
       nuclear repulsion energy       271.3381880709 Hartrees.
 NAtoms=   16 NActive=   16 NUniq=   16 SFac= 1.00D+00 NAtFMM=   50 NAOKFM=F Big=F
 One-electron integrals computed using PRISM.
 NBasis=   110 RedAO= T  NBF=   110
 NBsUse=   110 1.00D-06 NBFU=   110
 Harris functional with IExCor= 1009 diagonalized for initial guess.
 ExpMin= 1.61D-01 ExpMax= 5.48D+03 ExpMxC= 8.25D+02 IAcc=1 IRadAn=         1 AccDes= 0.00D+00
 HarFok:  IExCor= 1009 AccDes= 0.00D+00 IRadAn=         1 IDoV= 1
 ScaDFX=  1.000000  1.000000  1.000000  1.000000
 FoFCou: FMM=F IPFlag=           0 FMFlag=      100000 FMFlg1=           0
         NFxFlg=           0 DoJE=T BraDBF=F KetDBF=T FulRan=T
         Omega=  0.000000  0.000000  1.000000  0.000000  0.000000 ICntrl=     500 IOpCl=  0
         NMat0=    1 NMatS0=    1 NMatT0=    0 NMatD0=    1 NMtDS0=    0 NMtDT0=    0
         I1Cent=           4 NGrid=           0.
 Petite list used in FoFCou.
 Initial guess orbital symmetries:
       Occupied  (A) (A) (A) (A) (A) (A) (A) (A) (A) (A) (A) (A)
                 (A) (A) (A) (A) (A) (A) (A) (A) (A) (A) (A) (A)
       Virtual   (A) (A) (A) (A) (A) (A) (A) (A) (A) (A) (A) (A)
                 (A) (A) (A) (A) (A) (A) (A) (A) (A) (A) (A) (A)
                 (A) (A) (A) (A) (A) (A) (A) (A) (A) (A) (A) (A)
                 (A) (A) (A) (A) (A) (A) (A) (A) (A) (A) (A) (A)
                 (A) (A) (A) (A) (A) (A) (A) (A) (A) (A) (A) (A)
                 (A) (A) (A) (A) (A) (A) (A) (A) (A) (A) (A) (A)
                 (A) (A) (A) (A) (A) (A) (A) (A) (A) (A) (A) (A)
                 (A) (A)
 The electronic state of the initial guess is 1-A.
 Requested convergence on RMS density matrix=1.00D-08 within 128 cycles.
 Requested convergence on MAX density matrix=1.00D-06.
 Requested convergence on             energy=1.00D-06.
 No special actions if energy rises.
 Keep R1 ints in memory in canonical form, NReq=19758407.
 Integral accuracy reduced to 1.0D-05 until final iterations.
 Initial convergence to 1.0D-05 achieved.  Increase integral accuracy.
 SCF Done:  E(RM062X) =  -271.558927149     A.U. after   14 cycles
             Convg  =    0.3936D-08             -V/T =  2.0036

 **********************************************************************

            Population analysis using the SCF density.

 **********************************************************************

 Orbital symmetries:
       Occupied  (A) (A) (A) (A) (A) (A) (A) (A) (A) (A) (A) (A)
                 (A) (A) (A) (A) (A) (A) (A) (A) (A) (A) (A) (A)
       Virtual   (A) (A) (A) (A) (A) (A) (A) (A) (A) (A) (A) (A)
                 (A) (A) (A) (A) (A) (A) (A) (A) (A) (A) (A) (A)
                 (A) (A) (A) (A) (A) (A) (A) (A) (A) (A) (A) (A)
                 (A) (A) (A) (A) (A) (A) (A) (A) (A) (A) (A) (A)
                 (A) (A) (A) (A) (A) (A) (A) (A) (A) (A) (A) (A)
                 (A) (A) (A) (A) (A) (A) (A) (A) (A) (A) (A) (A)
                 (A) (A) (A) (A) (A) (A) (A) (A) (A) (A) (A) (A)
                 (A) (A)
 The electronic state is 1-A.
 Alpha  occ. eigenvalues --  -19.62313 -10.57190 -10.56962 -10.52082 -10.51890
 Alpha  occ. eigenvalues --  -10.51682  -1.15951  -0.94415  -0.88922  -0.75355
 Alpha  occ. eigenvalues --   -0.72863  -0.62205  -0.58784  -0.56376  -0.54866
 Alpha  occ. eigenvalues --   -0.51000  -0.50567  -0.45664  -0.44211  -0.41259
 Alpha  occ. eigenvalues --   -0.39506  -0.36634  -0.34207  -0.30207
 Alpha virt. eigenvalues --    0.09918   0.12242   0.16423   0.18600   0.19476
 Alpha virt. eigenvalues --    0.20221   0.22209   0.23369   0.24902   0.27100
 Alpha virt. eigenvalues --    0.28793   0.30413   0.33177   0.34550   0.40207
 Alpha virt. eigenvalues --    0.45033   0.53741   0.58622   0.60584   0.60734
 Alpha virt. eigenvalues --    0.63102   0.64214   0.66252   0.75978   0.78055
 Alpha virt. eigenvalues --    0.79405   0.81590   0.82262   0.84387   0.88619
 Alpha virt. eigenvalues --    0.89914   0.91436   0.92309   0.93361   0.94937
 Alpha virt. eigenvalues --    0.96636   0.97279   1.00229   1.02368   1.03635
 Alpha virt. eigenvalues --    1.06224   1.07518   1.19424   1.24327   1.28811
 Alpha virt. eigenvalues --    1.38029   1.40204   1.46396   1.54577   1.58176
 Alpha virt. eigenvalues --    1.66612   1.77813   1.81507   1.87729   1.90778
 Alpha virt. eigenvalues --    1.96296   1.99135   2.04602   2.05939   2.09311
 Alpha virt. eigenvalues --    2.11331   2.16357   2.16868   2.21558   2.26593
 Alpha virt. eigenvalues --    2.28438   2.35766   2.41274   2.43693   2.45800
 Alpha virt. eigenvalues --    2.50787   2.55473   2.58397   2.65781   2.75423
 Alpha virt. eigenvalues --    2.77794   2.82466   2.89093   3.03327   3.08743
 Alpha virt. eigenvalues --    4.05451   4.29238   4.32574   4.42760   4.50823
 Alpha virt. eigenvalues --    4.68854
          Condensed to atoms (all electrons):
              1          2          3          4          5          6
     1  C    4.857096   0.373199  -0.058172  -0.021676  -0.046690   0.251271
     2  C    0.373199   5.129562   0.378122  -0.060104  -0.024292  -0.057237
     3  C   -0.058172   0.378122   5.080519   0.347357  -0.050078  -0.018497
     4  C   -0.021676  -0.060104   0.347357   5.233097   0.320346  -0.039420
     5  C   -0.046690  -0.024292  -0.050078   0.320346   4.826409   0.260224
     6  O    0.251271  -0.057237  -0.018497  -0.039420   0.260224   8.271217
     7  H    0.006576  -0.000611   0.003934  -0.052783   0.408112  -0.039878
     8  H   -0.005812   0.000706   0.003016  -0.072767   0.400747  -0.052511
     9  H    0.001796   0.003584  -0.044088   0.402846  -0.046152   0.002967
    10  H   -0.000597   0.006173  -0.046972   0.399449  -0.043560   0.003287
    11  H    0.007913  -0.045688   0.409253  -0.051406   0.003919  -0.000379
    12  H   -0.002108  -0.049799   0.404093  -0.054958   0.005653  -0.000258
    13  H   -0.043900   0.384402  -0.055871   0.000244   0.001551   0.001368
    14  H   -0.039375   0.375688  -0.045697   0.008541   0.000241   0.005105
    15  H    0.398755  -0.046452   0.008546  -0.000159   0.005294  -0.032915
    16  H    0.369238  -0.069948  -0.010941  -0.003180  -0.001627  -0.050452
              7          8          9         10         11         12
     1  C    0.006576  -0.005812   0.001796  -0.000597   0.007913  -0.002108
     2  C   -0.000611   0.000706   0.003584   0.006173  -0.045688  -0.049799
     3  C    0.003934   0.003016  -0.044088  -0.046972   0.409253   0.404093
     4  C   -0.052783  -0.072767   0.402846   0.399449  -0.051406  -0.054958
     5  C    0.408112   0.400747  -0.046152  -0.043560   0.003919   0.005653
     6  O   -0.039878  -0.052511   0.002967   0.003287  -0.000379  -0.000258
     7  H    0.574427  -0.040902   0.006312  -0.020908   0.000159  -0.000308
     8  H   -0.040902   0.637830  -0.019517   0.007578  -0.000388   0.000151
     9  H    0.006312  -0.019517   0.568346  -0.025353   0.004779  -0.022429
    10  H   -0.020908   0.007578  -0.025353   0.569442  -0.022546   0.005786
    11  H    0.000159  -0.000388   0.004779  -0.022546   0.572106  -0.023909
    12  H   -0.000308   0.000151  -0.022429   0.005786  -0.023909   0.587324
    13  H   -0.000446   0.000237  -0.000368   0.000656  -0.014192   0.008089
    14  H    0.000013   0.000102  -0.000167  -0.000189  -0.001110  -0.015988
    15  H   -0.000127  -0.000188   0.000036   0.000013  -0.000298  -0.000239
    16  H   -0.000627   0.009144  -0.001131   0.000238  -0.000262   0.005558
             13         14         15         16
     1  C   -0.043900  -0.039375   0.398755   0.369238
     2  C    0.384402   0.375688  -0.046452  -0.069948
     3  C   -0.055871  -0.045697   0.008546  -0.010941
     4  C    0.000244   0.008541  -0.000159  -0.003180
     5  C    0.001551   0.000241   0.005294  -0.001627
     6  O    0.001368   0.005105  -0.032915  -0.050452
     7  H   -0.000446   0.000013  -0.000127  -0.000627
     8  H    0.000237   0.000102  -0.000188   0.009144
     9  H   -0.000368  -0.000167   0.000036  -0.001131
    10  H    0.000656  -0.000189   0.000013   0.000238
    11  H   -0.014192  -0.001110  -0.000298  -0.000262
    12  H    0.008089  -0.015988  -0.000239   0.005558
    13  H    0.583994  -0.022020  -0.009273   0.009734
    14  H   -0.022020   0.584600  -0.002479   0.000227
    15  H   -0.009273  -0.002479   0.551142  -0.036479
    16  H    0.009734   0.000227  -0.036479   0.665948
 Mulliken atomic charges:
              1
     1  C   -0.047513
     2  C   -0.297305
     3  C   -0.304521
     4  C   -0.355427
     5  C   -0.020096
     6  O   -0.503892
     7  H    0.157057
     8  H    0.132573
     9  H    0.168541
    10  H    0.167503
    11  H    0.162050
    12  H    0.153343
    13  H    0.155796
    14  H    0.152507
    15  H    0.164822
    16  H    0.114561
 Sum of Mulliken atomic charges =   0.00000
 Mulliken charges with hydrogens summed into heavy atoms:
              1
     1  C    0.231870
     2  C    0.010999
     3  C    0.010872
     4  C   -0.019383
     5  C    0.269535
     6  O   -0.503892
 Sum of Mulliken charges with hydrogens summed into heavy atoms =   0.00000
 Electronic spatial extent (au):  <R**2>=            507.7308
 Charge=              0.0000 electrons
 Dipole moment (field-independent basis, Debye):
    X=             -0.2133    Y=              1.5906    Z=              0.4883  Tot=              1.6775
 Quadrupole moment (field-independent basis, Debye-Ang):
   XX=            -36.0676   YY=            -41.6503   ZZ=            -37.1136
   XY=              1.2883   XZ=             -0.5329   YZ=             -0.9793
 Traceless Quadrupole moment (field-independent basis, Debye-Ang):
   XX=              2.2096   YY=             -3.3732   ZZ=              1.1636
   XY=              1.2883   XZ=             -0.5329   YZ=             -0.9793
 Octapole moment (field-independent basis, Debye-Ang**2):
  XXX=              0.7550  YYY=             -0.9549  ZZZ=             -1.2372  XYY=             -2.2010
  XXY=             -3.8913  XXZ=             -0.8683  XZZ=              1.5317  YZZ=              0.3281
  YYZ=              0.2142  XYZ=             -0.7238
 Hexadecapole moment (field-independent basis, Debye-Ang**3):
 XXXX=           -305.9236 YYYY=           -294.2970 ZZZZ=            -80.6860 XXXY=              0.4904
 XXXZ=             -4.9540 YYYX=              4.2558 YYYZ=             -1.5699 ZZZX=              0.2338
 ZZZY=              1.3190 XXYY=            -96.7206 XXZZ=            -62.8786 YYZZ=            -59.2378
 XXYZ=              1.5642 YYXZ=             -0.4317 ZZXY=             -0.2607
 N-N= 2.713381880709D+02 E-N=-1.174918094398D+03  KE= 2.705824612349D+02
 Calling FoFJK, ICntrl=      2127 FMM=F ISym2X=0 I1Cent= 0 IOpClX= 0 NMat=1 NMatS=1 NMatT=0.
 ***** Axes restored to original set *****
 -------------------------------------------------------------------
 Center     Atomic                   Forces (Hartrees/Bohr)
 Number     Number              X              Y              Z
 -------------------------------------------------------------------
      1        6           0.038401438   -0.056392267   -0.031075159
      2        6           0.058361579    0.066083892    0.048296974
      3        6          -0.043623063    0.100168314   -0.006557064
      4        6          -0.105687905   -0.000257970   -0.013665782
      5        6           0.036142257   -0.090260223    0.002238104
      6        8           0.014730629   -0.008459885    0.014931818
      7        1           0.008884164   -0.010660982   -0.003796924
      8        1           0.001379434   -0.011905054    0.001122112
      9        1          -0.011953250   -0.000878062    0.006865003
     10        1          -0.009216484   -0.001027359   -0.009648127
     11        1          -0.001689208    0.012217410   -0.009147090
     12        1          -0.003679198    0.008820722    0.003866862
     13        1           0.008900303    0.001418022    0.001303096
     14        1           0.005230293    0.003342990    0.008394489
     15        1          -0.000487368   -0.010017721   -0.003625211
     16        1           0.004306380   -0.002191826   -0.009503099
 -------------------------------------------------------------------
 Cartesian Forces:  Max     0.105687905 RMS     0.032440793

 GradGradGradGradGradGradGradGradGradGradGradGradGradGradGradGradGradGrad
 Berny optimization.
 Internal  Forces:  Max     0.126958648 RMS     0.025392206
 Search for a local minimum.
 Step number   1 out of a maximum of   99
 All quantities printed in internal units (Hartrees-Bohrs-Radians)
 Mixed Optimization -- RFO/linear search
 Second derivative matrix not updated -- first step.
 ITU=  0
     Eigenvalues ---    0.02026   0.02100   0.02404   0.03746   0.03980
     Eigenvalues ---    0.04716   0.05328   0.06027   0.06090   0.06227
     Eigenvalues ---    0.06559   0.07149   0.07401   0.08865   0.09051
     Eigenvalues ---    0.09758   0.10120   0.10662   0.11443   0.11761
     Eigenvalues ---    0.12193   0.12997   0.13730   0.19158   0.19730
     Eigenvalues ---    0.22277   0.34126   0.34127   0.34127   0.34128
     Eigenvalues ---    0.34128   0.34131   0.34131   0.34132   0.34132
     Eigenvalues ---    0.34133   0.40851   0.41427   0.43746   0.45563
     Eigenvalues ---    0.45585   0.45631
 RFO step:  Lambda=-1.07948166D-01 EMin= 2.02583952D-02
 Linear search not attempted -- first point.
 Maximum step size (   0.300) exceeded in Quadratic search.
    -- Step size scaled by   0.672
 Iteration  1 RMS(Cart)=  0.05901821 RMS(Int)=  0.00063269
 Iteration  2 RMS(Cart)=  0.00069125 RMS(Int)=  0.00025109
 Iteration  3 RMS(Cart)=  0.00000034 RMS(Int)=  0.00025109
 Variable       Old X    -DE/DX   Delta X   Delta X   Delta X     New X
                                 (Linear)    (Quad)   (Total)
    R1        2.64563   0.09564   0.00000   0.11340   0.11334   2.75896
    R2        2.64563   0.01865   0.00000   0.01600   0.01552   2.66114
    R3        2.07116  -0.00116   0.00000  -0.00174  -0.00174   2.06942
    R4        2.07107   0.00876   0.00000   0.01309   0.01309   2.08416
    R5        2.64550   0.11035   0.00000   0.13484   0.13514   2.78064
    R6        2.07107   0.00270   0.00000   0.00404   0.00404   2.07511
    R7        2.07107   0.00158   0.00000   0.00236   0.00236   2.07343
    R8        2.64647   0.12455   0.00000   0.15385   0.15429   2.80076
    R9        2.07114  -0.00006   0.00000  -0.00009  -0.00009   2.07105
   R10        2.07110   0.00168   0.00000   0.00251   0.00251   2.07361
   R11        2.64647   0.12696   0.00000   0.15301   0.15311   2.79958
   R12        2.07116  -0.00099   0.00000  -0.00148  -0.00148   2.06968
   R13        2.07118  -0.00036   0.00000  -0.00055  -0.00055   2.07064
   R14        2.64550   0.02271   0.00000   0.02315   0.02280   2.66830
   R15        2.07114  -0.00111   0.00000  -0.00166  -0.00166   2.06948
   R16        2.07110   0.00489   0.00000   0.00731   0.00731   2.07841
    A1        1.91783   0.01021   0.00000   0.01262   0.01221   1.93004
    A2        1.90885   0.00310   0.00000   0.01796   0.01820   1.92705
    A3        1.90885   0.00463   0.00000   0.01424   0.01409   1.92294
    A4        1.90885  -0.01060   0.00000  -0.02761  -0.02756   1.88130
    A5        1.90885  -0.00320   0.00000  -0.00182  -0.00198   1.90687
    A6        1.91056  -0.00418   0.00000  -0.01551  -0.01580   1.89476
    A7        1.96229  -0.00069   0.00000  -0.00369  -0.00357   1.95872
    A8        1.89762  -0.00505   0.00000  -0.01139  -0.01128   1.88634
    A9        1.89763   0.00281   0.00000   0.00542   0.00523   1.90286
   A10        1.89765   0.00473   0.00000   0.01542   0.01534   1.91299
   A11        1.89765   0.00247   0.00000   0.01055   0.01053   1.90818
   A12        1.91060  -0.00443   0.00000  -0.01695  -0.01701   1.89359
   A13        2.04841  -0.02085   0.00000  -0.02677  -0.02582   2.02259
   A14        1.87562   0.00290   0.00000   0.00568   0.00572   1.88134
   A15        1.87562   0.00924   0.00000   0.01100   0.01074   1.88635
   A16        1.87559   0.01144   0.00000   0.02109   0.02075   1.89633
   A17        1.87559   0.00655   0.00000   0.01469   0.01462   1.89021
   A18        1.91056  -0.00963   0.00000  -0.02784  -0.02781   1.88275
   A19        2.09204  -0.01595   0.00000  -0.02013  -0.01947   2.07257
   A20        1.86424   0.00898   0.00000   0.01438   0.01416   1.87841
   A21        1.86424   0.00465   0.00000   0.01295   0.01292   1.87715
   A22        1.86424   0.00215   0.00000   0.00543   0.00547   1.86971
   A23        1.86424   0.00887   0.00000   0.01348   0.01326   1.87750
   A24        1.91070  -0.00936   0.00000  -0.02952  -0.02946   1.88124
   A25        2.04841   0.00608   0.00000   0.00667   0.00635   2.05476
   A26        1.87559   0.01032   0.00000   0.03203   0.03200   1.90759
   A27        1.87559   0.00764   0.00000   0.02606   0.02600   1.90159
   A28        1.87562  -0.00902   0.00000  -0.02742  -0.02755   1.84807
   A29        1.87562  -0.00820   0.00000  -0.01438  -0.01443   1.86119
   A30        1.91056  -0.00790   0.00000  -0.02605  -0.02679   1.88378
   A31        1.96229   0.02331   0.00000   0.02626   0.02517   1.98746
    D1       -1.04781  -0.00243   0.00000  -0.00793  -0.00789  -1.05570
    D2        1.05434  -0.00036   0.00000   0.00135   0.00144   1.05577
    D3        3.13323  -0.00699   0.00000  -0.02249  -0.02241   3.11083
    D4        3.13985   0.00239   0.00000   0.00706   0.00706  -3.13627
    D5       -1.04119   0.00445   0.00000   0.01634   0.01638  -1.02480
    D6        1.03770  -0.00217   0.00000  -0.00750  -0.00746   1.03025
    D7        1.04772   0.00280   0.00000   0.00645   0.00640   1.05412
    D8       -3.13332   0.00487   0.00000   0.01573   0.01573  -3.11759
    D9       -1.05443  -0.00176   0.00000  -0.00811  -0.00811  -1.06254
   D10        1.04781   0.00845   0.00000   0.02058   0.02035   1.06815
   D11       -3.13985   0.01195   0.00000   0.03325   0.03285  -3.10700
   D12       -1.04772  -0.00154   0.00000  -0.00356  -0.00347  -1.05119
   D13        0.52183  -0.00376   0.00000  -0.00444  -0.00423   0.51761
   D14        2.63607  -0.00059   0.00000   0.00961   0.00984   2.64591
   D15       -1.59241  -0.00554   0.00000  -0.01429  -0.01418  -1.60659
   D16       -1.58029  -0.00018   0.00000   0.00175   0.00184  -1.57845
   D17        0.53394   0.00299   0.00000   0.01580   0.01591   0.54986
   D18        2.58865  -0.00196   0.00000  -0.00811  -0.00811   2.58054
   D19        2.62397   0.00100   0.00000   0.00716   0.00724   2.63121
   D20       -1.54498   0.00417   0.00000   0.02121   0.02131  -1.52367
   D21        0.50973  -0.00078   0.00000  -0.00269  -0.00271   0.50702
   D22       -0.00066  -0.00625   0.00000  -0.01000  -0.00979  -0.01045
   D23       -2.12060  -0.00561   0.00000  -0.01548  -0.01538  -2.13598
   D24        2.11926  -0.00153   0.00000   0.00513   0.00526   2.12452
   D25       -2.11491  -0.00498   0.00000  -0.01602  -0.01585  -2.13077
   D26        2.04834  -0.00434   0.00000  -0.02149  -0.02145   2.02689
   D27        0.00501  -0.00025   0.00000  -0.00088  -0.00081   0.00420
   D28        2.11359  -0.00308   0.00000  -0.00207  -0.00191   2.11168
   D29       -0.00634  -0.00243   0.00000  -0.00754  -0.00750  -0.01385
   D30       -2.04967   0.00165   0.00000   0.01307   0.01314  -2.03653
   D31        0.00066  -0.00215   0.00000   0.00387   0.00399   0.00465
   D32        2.11491  -0.00168   0.00000  -0.00221  -0.00230   2.11261
   D33       -2.11359  -0.00158   0.00000  -0.00246  -0.00237  -2.11596
   D34        2.12060   0.00058   0.00000   0.01377   0.01396   2.13455
   D35       -2.04834   0.00105   0.00000   0.00769   0.00766  -2.04067
   D36        0.00634   0.00115   0.00000   0.00744   0.00760   0.01394
   D37       -2.11926  -0.00480   0.00000  -0.01100  -0.01088  -2.13014
   D38       -0.00501  -0.00433   0.00000  -0.01708  -0.01718  -0.02218
   D39        2.04967  -0.00423   0.00000  -0.01733  -0.01724   2.03243
   D40       -0.52183  -0.00190   0.00000  -0.01161  -0.01166  -0.53349
   D41       -2.63607  -0.01244   0.00000  -0.03649  -0.03600  -2.67207
   D42        1.59241   0.00578   0.00000   0.01578   0.01539   1.60780
         Item               Value     Threshold  Converged?
 Maximum Force            0.126959     0.000450     NO 
 RMS     Force            0.025392     0.000300     NO 
 Maximum Displacement     0.178234     0.001800     NO 
 RMS     Displacement     0.058904     0.001200     NO 
 Predicted change in Energy=-5.340521D-02
 GradGradGradGradGradGradGradGradGradGradGradGradGradGradGradGradGradGrad

                          Input orientation:                          
 ---------------------------------------------------------------------
 Center     Atomic      Atomic             Coordinates (Angstroms)
 Number     Number       Type             X           Y           Z
 ---------------------------------------------------------------------
      1          6           0        1.318071   -0.020024   -0.334131
      2          6           0        0.739728    1.189531    0.243831
      3          6           0       -0.707400    1.287769   -0.003831
      4          6           0       -1.431785    0.000548   -0.126092
      5          6           0       -0.666040   -1.262101   -0.007267
      6          8           0        0.723775   -1.168344    0.223762
      7          1           0       -1.068652   -1.852807    0.822347
      8          1           0       -0.793072   -1.845213   -0.931122
      9          1           0       -1.923764   -0.011477   -1.104528
     10          1           0       -2.213368   -0.013035    0.641748
     11          1           0       -1.149611    1.862117    0.818172
     12          1           0       -0.856495    1.856410   -0.930387
     13          1           0        0.928229    1.174133    1.325522
     14          1           0        1.241842    2.066036   -0.184529
     15          1           0        2.392627   -0.065711   -0.128053
     16          1           0        1.169516   -0.028033   -1.426942
 ---------------------------------------------------------------------
                    Distance matrix (angstroms):
                    1          2          3          4          5
     1  C    0.000000
     2  C    1.459981   0.000000
     3  C    2.433506   1.471451   0.000000
     4  C    2.757791   2.503197   1.482100   0.000000
     5  C    2.363533   2.837206   2.550208   1.481475   0.000000
     6  O    1.408215   2.358015   2.851763   2.476923   1.412003
     7  H    3.223814   3.586188   3.267460   2.113369   1.095121
     8  H    2.853881   3.597175   3.268453   2.112549   1.099848
     9  H    3.332128   3.217870   2.092634   1.095228   2.085645
    10  H    3.663803   3.213298   2.092081   1.095735   2.091797
    11  H    3.310546   2.086107   1.095954   2.106347   3.267405
    12  H    2.933473   2.090800   1.097309   2.102872   3.257842
    13  H    2.081451   1.098100   2.110776   3.009012   3.202071
    14  H    2.092807   1.097211   2.106632   3.379044   3.840304
    15  H    1.095092   2.108555   3.384894   3.824986   3.286545
    16  H    1.102891   2.111555   2.698035   2.908573   2.628244
                    6          7          8          9         10
     6  O    0.000000
     7  H    2.009873   0.000000
     8  H    2.023051   1.775009   0.000000
     9  H    3.179963   2.799029   2.161279   0.000000
    10  H    3.183750   2.174340   2.801436   1.770128   0.000000
    11  H    3.612007   3.715809   4.114784   2.794001   2.163077
    12  H    3.602562   4.107965   3.702167   2.158330   2.794197
    13  H    2.596705   3.661022   4.143884   3.929972   3.427324
    14  H    3.300956   4.659347   4.471706   3.896604   4.116279
    15  H    2.030920   4.009666   3.736338   4.425797   4.670178
    16  H    2.055193   3.660396   2.720245   3.110082   3.965301
                   11         12         13         14         15
    11  H    0.000000
    12  H    1.772965   0.000000
    13  H    2.246808   2.956327   0.000000
    14  H    2.601161   2.236799   1.781600   0.000000
    15  H    4.142380   3.859415   2.407188   2.423189   0.000000
    16  H    3.740528   2.811123   3.013218   2.435969   1.784526
                   16
    16  H    0.000000
 Stoichiometry    C5H10O
 Framework group  C1[X(C5H10O)]
 Deg. of freedom    42
 Full point group                 C1      NOp   1
 Largest Abelian subgroup         C1      NOp   1
 Largest concise Abelian subgroup C1      NOp   1
                         Standard orientation:                         
 ---------------------------------------------------------------------
 Center     Atomic      Atomic             Coordinates (Angstroms)
 Number     Number       Type             X           Y           Z
 ---------------------------------------------------------------------
      1          6           0       -0.793397   -1.076360    0.326946
      2          6           0       -1.393009    0.132387   -0.230672
      3          6           0       -0.566757    1.325822    0.010549
      4          6           0        0.894053    1.093440    0.103575
      5          6           0        1.405794   -0.289880   -0.035408
      6          8           0        0.464988   -1.319304   -0.256592
      7          1           0        2.103076   -0.334779   -0.878659
      8          1           0        1.959005   -0.559383    0.876178
      9          1           0        1.227376    1.464180    1.078753
     10          1           0        1.375560    1.703470   -0.668855
     11          1           0       -0.757721    2.035306   -0.802642
     12          1           0       -0.902349    1.788735    0.947127
     13          1           0       -1.518346   -0.016718   -1.311359
     14          1           0       -2.383589    0.279796    0.217540
     15          1           0       -1.428704   -1.945444    0.126186
     16          1           0       -0.674313   -0.973184    1.418524
 ---------------------------------------------------------------------
 Rotational constants (GHZ):      4.8006482      4.6270338      2.6430730
 Standard basis: 6-31G(d) (6D, 7F)
 There are   110 symmetry adapted basis functions of A   symmetry.
 Integral buffers will be    131072 words long.
 Raffenetti 2 integral format.
 Two-electron integral symmetry is turned on.
   110 basis functions,   208 primitive gaussians,   110 cartesian basis functions
    24 alpha electrons       24 beta electrons
       nuclear repulsion energy       263.5298351432 Hartrees.
 NAtoms=   16 NActive=   16 NUniq=   16 SFac= 1.00D+00 NAtFMM=   50 NAOKFM=F Big=F
 One-electron integrals computed using PRISM.
 NBasis=   110 RedAO= T  NBF=   110
 NBsUse=   110 1.00D-06 NBFU=   110
 Initial guess read from the read-write file.
 B after Tr=     0.000000    0.000000    0.000000
         Rot=    1.000000    0.000000    0.000000    0.000000 Ang=   0.00 deg.
 Initial guess orbital symmetries:
       Occupied  (A) (A) (A) (A) (A) (A) (A) (A) (A) (A) (A) (A)
                 (A) (A) (A) (A) (A) (A) (A) (A) (A) (A) (A) (A)
       Virtual   (A) (A) (A) (A) (A) (A) (A) (A) (A) (A) (A) (A)
                 (A) (A) (A) (A) (A) (A) (A) (A) (A) (A) (A) (A)
                 (A) (A) (A) (A) (A) (A) (A) (A) (A) (A) (A) (A)
                 (A) (A) (A) (A) (A) (A) (A) (A) (A) (A) (A) (A)
                 (A) (A) (A) (A) (A) (A) (A) (A) (A) (A) (A) (A)
                 (A) (A) (A) (A) (A) (A) (A) (A) (A) (A) (A) (A)
                 (A) (A) (A) (A) (A) (A) (A) (A) (A) (A) (A) (A)
                 (A) (A)
 Harris functional with IExCor= 1009 diagonalized for initial guess.
 ExpMin= 1.61D-01 ExpMax= 5.48D+03 ExpMxC= 8.25D+02 IAcc=1 IRadAn=         1 AccDes= 0.00D+00
 HarFok:  IExCor= 1009 AccDes= 0.00D+00 IRadAn=         1 IDoV= 1
 ScaDFX=  1.000000  1.000000  1.000000  1.000000
 FoFCou: FMM=F IPFlag=           0 FMFlag=      100000 FMFlg1=           0
         NFxFlg=           0 DoJE=T BraDBF=F KetDBF=T FulRan=T
         Omega=  0.000000  0.000000  1.000000  0.000000  0.000000 ICntrl=     500 IOpCl=  0
         NMat0=    1 NMatS0=    1 NMatT0=    0 NMatD0=    1 NMtDS0=    0 NMtDT0=    0
         I1Cent=           4 NGrid=           0.
 Petite list used in FoFCou.
 Requested convergence on RMS density matrix=1.00D-08 within 128 cycles.
 Requested convergence on MAX density matrix=1.00D-06.
 Requested convergence on             energy=1.00D-06.
 No special actions if energy rises.
 Keep R1 ints in memory in canonical form, NReq=19758706.
 Integral accuracy reduced to 1.0D-05 until final iterations.
 Initial convergence to 1.0D-05 achieved.  Increase integral accuracy.
 SCF Done:  E(RM062X) =  -271.607816328     A.U. after   15 cycles
             Convg  =    0.4394D-08             -V/T =  2.0067
 Calling FoFJK, ICntrl=      2127 FMM=F ISym2X=0 I1Cent= 0 IOpClX= 0 NMat=1 NMatS=1 NMatT=0.
 ***** Axes restored to original set *****
 -------------------------------------------------------------------
 Center     Atomic                   Forces (Hartrees/Bohr)
 Number     Number              X              Y              Z
 -------------------------------------------------------------------
      1        6           0.011590834   -0.026697254   -0.017254454
      2        6           0.023758040    0.027535624    0.021201788
      3        6          -0.016492181    0.038082463   -0.003280083
      4        6          -0.040033507   -0.000516447   -0.003393317
      5        6           0.018072820   -0.035920983   -0.003375457
      6        8           0.006703307    0.001381334    0.011741716
      7        1           0.003480764   -0.003360129   -0.002095119
      8        1          -0.001670696   -0.003285553    0.000787967
      9        1          -0.005597066   -0.000412779    0.004190248
     10        1          -0.003637906   -0.001178078   -0.005262908
     11        1          -0.001444358    0.005073855   -0.005791675
     12        1          -0.001781169    0.002655433    0.002938508
     13        1           0.003785717    0.000495416   -0.001001234
     14        1           0.001925224    0.000965716    0.005106663
     15        1          -0.001108669   -0.005010064   -0.001363337
     16        1           0.002448846    0.000191445   -0.003149307
 -------------------------------------------------------------------
 Cartesian Forces:  Max     0.040033507 RMS     0.013214230

 GradGradGradGradGradGradGradGradGradGradGradGradGradGradGradGradGradGrad
 Berny optimization.
 Using GEDIIS/GDIIS optimizer.
 Internal  Forces:  Max     0.047255640 RMS     0.009761383
 Search for a local minimum.
 Step number   2 out of a maximum of   99
 All quantities printed in internal units (Hartrees-Bohrs-Radians)
 Mixed Optimization -- RFO/linear search
 Update second derivatives using D2CorX and points    1    2
 DE= -4.89D-02 DEPred=-5.34D-02 R= 9.15D-01
 SS=  1.41D+00  RLast= 3.13D-01 DXNew= 5.0454D-01 9.3896D-01
 Trust test= 9.15D-01 RLast= 3.13D-01 DXMaxT set to 5.05D-01
 ITU=  1  0
 Use linear search instead of GDIIS.
     Eigenvalues ---    0.02024   0.02102   0.02405   0.03742   0.03961
     Eigenvalues ---    0.04737   0.05253   0.05986   0.06069   0.06243
     Eigenvalues ---    0.06588   0.06981   0.07296   0.08826   0.09070
     Eigenvalues ---    0.09610   0.10016   0.10624   0.11633   0.11844
     Eigenvalues ---    0.12655   0.12950   0.13766   0.18970   0.19686
     Eigenvalues ---    0.22191   0.34090   0.34126   0.34127   0.34128
     Eigenvalues ---    0.34128   0.34130   0.34131   0.34132   0.34133
     Eigenvalues ---    0.34157   0.41002   0.42153   0.43760   0.45561
     Eigenvalues ---    0.45614   0.50656
 RFO step:  Lambda=-5.78290743D-03 EMin= 2.02445281D-02
 Quartic linear search produced a step of  0.91563.
 Iteration  1 RMS(Cart)=  0.06340343 RMS(Int)=  0.00153734
 Iteration  2 RMS(Cart)=  0.00183482 RMS(Int)=  0.00071490
 Iteration  3 RMS(Cart)=  0.00000143 RMS(Int)=  0.00071490
 Iteration  4 RMS(Cart)=  0.00000000 RMS(Int)=  0.00071490
 Variable       Old X    -DE/DX   Delta X   Delta X   Delta X     New X
                                 (Linear)    (Quad)   (Total)
    R1        2.75896   0.03883   0.10378   0.00308   0.10662   2.86558
    R2        2.66114   0.00452   0.01421  -0.01459  -0.00149   2.65965
    R3        2.06942  -0.00114  -0.00159  -0.00386  -0.00545   2.06398
    R4        2.08416   0.00280   0.01199  -0.00281   0.00918   2.09334
    R5        2.78064   0.04336   0.12374  -0.00082   0.12348   2.90412
    R6        2.07511  -0.00035   0.00370  -0.00753  -0.00383   2.07128
    R7        2.07343  -0.00034   0.00216  -0.00517  -0.00300   2.07043
    R8        2.80076   0.04700   0.14128  -0.00894   0.13333   2.93409
    R9        2.07105  -0.00110  -0.00008  -0.00592  -0.00600   2.06505
   R10        2.07361  -0.00087   0.00230  -0.00830  -0.00599   2.06762
   R11        2.79958   0.04726   0.14019  -0.01392   0.12658   2.92616
   R12        2.06968  -0.00123  -0.00135  -0.00473  -0.00608   2.06360
   R13        2.07064  -0.00107  -0.00050  -0.00515  -0.00565   2.06499
   R14        2.66830   0.00802   0.02088  -0.00641   0.01378   2.68208
   R15        2.06948  -0.00106  -0.00152  -0.00351  -0.00503   2.06445
   R16        2.07841   0.00127   0.00669  -0.00316   0.00353   2.08194
    A1        1.93004   0.00332   0.01118  -0.02512  -0.01556   1.91448
    A2        1.92705   0.00162   0.01667   0.01767   0.03402   1.96108
    A3        1.92294   0.00183   0.01290   0.01814   0.03056   1.95350
    A4        1.88130  -0.00522  -0.02523  -0.04052  -0.06452   1.81678
    A5        1.90687   0.00013  -0.00181   0.04192   0.03964   1.94652
    A6        1.89476  -0.00192  -0.01446  -0.01272  -0.02782   1.86694
    A7        1.95872  -0.00158  -0.00327  -0.02351  -0.02650   1.93222
    A8        1.88634  -0.00171  -0.01033  -0.00748  -0.01711   1.86923
    A9        1.90286   0.00168   0.00479   0.01809   0.02261   1.92547
   A10        1.91299   0.00250   0.01404   0.02336   0.03656   1.94955
   A11        1.90818   0.00145   0.00964   0.02003   0.03008   1.93826
   A12        1.89359  -0.00244  -0.01557  -0.03149  -0.04738   1.84621
   A13        2.02259  -0.00737  -0.02365   0.00366  -0.01916   2.00343
   A14        1.88134   0.00172   0.00524   0.02421   0.02931   1.91065
   A15        1.88635   0.00385   0.00983   0.00323   0.01301   1.89937
   A16        1.89633   0.00374   0.01900   0.00975   0.02815   1.92448
   A17        1.89021   0.00230   0.01339  -0.00045   0.01319   1.90340
   A18        1.88275  -0.00428  -0.02547  -0.04486  -0.07013   1.81262
   A19        2.07257  -0.00560  -0.01783   0.00013  -0.01726   2.05531
   A20        1.87841   0.00361   0.01297   0.00272   0.01583   1.89423
   A21        1.87715   0.00215   0.01183   0.03052   0.04204   1.91919
   A22        1.86971   0.00072   0.00500   0.00479   0.00982   1.87952
   A23        1.87750   0.00317   0.01214   0.00678   0.01863   1.89613
   A24        1.88124  -0.00429  -0.02698  -0.05223  -0.07900   1.80223
   A25        2.05476   0.00252   0.00581  -0.01502  -0.01098   2.04378
   A26        1.90759   0.00301   0.02930  -0.00053   0.02889   1.93648
   A27        1.90159   0.00124   0.02380   0.00227   0.02571   1.92729
   A28        1.84807  -0.00341  -0.02523  -0.02233  -0.04687   1.80119
   A29        1.86119  -0.00119  -0.01321   0.05151   0.03817   1.89936
   A30        1.88378  -0.00281  -0.02453  -0.01658  -0.04180   1.84198
   A31        1.98746   0.00777   0.02305  -0.02428  -0.00618   1.98128
    D1       -1.05570  -0.00200  -0.00723  -0.04434  -0.05077  -1.10647
    D2        1.05577  -0.00101   0.00131  -0.03493  -0.03299   1.02278
    D3        3.11083  -0.00395  -0.02051  -0.06672  -0.08673   3.02409
    D4       -3.13627   0.00134   0.00646   0.01075   0.01796  -3.11832
    D5       -1.02480   0.00233   0.01500   0.02016   0.03574  -0.98907
    D6        1.03025  -0.00061  -0.00683  -0.01164  -0.01801   1.01224
    D7        1.05412   0.00153   0.00586   0.00367   0.00967   1.06379
    D8       -3.11759   0.00252   0.01440   0.01308   0.02745  -3.09014
    D9       -1.06254  -0.00042  -0.00743  -0.01872  -0.02630  -1.08884
   D10        1.06815   0.00485   0.01863   0.10223   0.12024   1.18840
   D11       -3.10700   0.00554   0.03008   0.08340   0.11410  -2.99290
   D12       -1.05119   0.00037  -0.00318   0.06830   0.06527  -0.98592
   D13        0.51761  -0.00114  -0.00387   0.00672   0.00335   0.52095
   D14        2.64591   0.00005   0.00901   0.04061   0.04983   2.69574
   D15       -1.60659  -0.00208  -0.01298   0.00232  -0.01062  -1.61721
   D16       -1.57845   0.00033   0.00169   0.01554   0.01794  -1.56051
   D17        0.54986   0.00152   0.01457   0.04943   0.06442   0.61428
   D18        2.58054  -0.00060  -0.00743   0.01114   0.00397   2.58451
   D19        2.63121   0.00095   0.00663   0.02796   0.03497   2.66618
   D20       -1.52367   0.00213   0.01952   0.06184   0.08145  -1.44222
   D21        0.50702   0.00001  -0.00248   0.02355   0.02100   0.52801
   D22       -0.01045  -0.00270  -0.00896  -0.01912  -0.02822  -0.03868
   D23       -2.13598  -0.00271  -0.01409  -0.02795  -0.04225  -2.17823
   D24        2.12452  -0.00062   0.00481   0.01604   0.02078   2.14530
   D25       -2.13077  -0.00274  -0.01452  -0.06093  -0.07539  -2.20616
   D26        2.02689  -0.00276  -0.01964  -0.06976  -0.08942   1.93747
   D27        0.00420  -0.00067  -0.00074  -0.02576  -0.02639  -0.02219
   D28        2.11168  -0.00094  -0.00175  -0.01274  -0.01437   2.09731
   D29       -0.01385  -0.00096  -0.00687  -0.02157  -0.02840  -0.04224
   D30       -2.03653   0.00113   0.01203   0.02243   0.03463  -2.00190
   D31        0.00465  -0.00026   0.00365   0.06668   0.07007   0.07473
   D32        2.11261  -0.00055  -0.00211   0.02550   0.02292   2.13553
   D33       -2.11596  -0.00151  -0.00217   0.00654   0.00439  -2.11157
   D34        2.13455   0.00123   0.01278   0.07444   0.08719   2.22174
   D35       -2.04067   0.00094   0.00702   0.03326   0.04003  -2.00064
   D36        0.01394  -0.00002   0.00696   0.01431   0.02151   0.03545
   D37       -2.13014  -0.00182  -0.00997   0.01963   0.00955  -2.12059
   D38       -0.02218  -0.00211  -0.01573  -0.02156  -0.03760  -0.05979
   D39        2.03243  -0.00307  -0.01579  -0.04051  -0.05613   1.97630
   D40       -0.53349  -0.00222  -0.01068  -0.10678  -0.11698  -0.65047
   D41       -2.67207  -0.00512  -0.03296  -0.07800  -0.11089  -2.78296
   D42        1.60780   0.00019   0.01409  -0.07212  -0.05809   1.54971
         Item               Value     Threshold  Converged?
 Maximum Force            0.047256     0.000450     NO 
 RMS     Force            0.009761     0.000300     NO 
 Maximum Displacement     0.206947     0.001800     NO 
 RMS     Displacement     0.063039     0.001200     NO 
 Predicted change in Energy=-7.336778D-03
 GradGradGradGradGradGradGradGradGradGradGradGradGradGradGradGradGradGrad

                          Input orientation:                          
 ---------------------------------------------------------------------
 Center     Atomic      Atomic             Coordinates (Angstroms)
 Number     Number       Type             X           Y           Z
 ---------------------------------------------------------------------
      1          6           0        1.326075   -0.038189   -0.347190
      2          6           0        0.772789    1.235291    0.262394
      3          6           0       -0.736398    1.353445   -0.002434
      4          6           0       -1.484374   -0.001890   -0.122167
      5          6           0       -0.646242   -1.299802   -0.018843
      6          8           0        0.735499   -1.155762    0.271757
      7          1           0       -1.007286   -1.934309    0.793880
      8          1           0       -0.755987   -1.902291   -0.934672
      9          1           0       -2.012922   -0.023399   -1.077499
     10          1           0       -2.292146   -0.048350    0.612295
     11          1           0       -1.195048    1.971629    0.773227
     12          1           0       -0.889797    1.928466   -0.920561
     13          1           0        0.994611    1.201856    1.335265
     14          1           0        1.310026    2.107643   -0.125892
     15          1           0        2.394146   -0.161070   -0.154720
     16          1           0        1.190654   -0.063468   -1.446338
 ---------------------------------------------------------------------
                    Distance matrix (angstroms):
                    1          2          3          4          5
     1  C    0.000000
     2  C    1.516401   0.000000
     3  C    2.511832   1.536796   0.000000
     4  C    2.819677   2.602555   1.552654   0.000000
     5  C    2.364215   2.918808   2.654829   1.548456   0.000000
     6  O    1.407424   2.391362   2.921948   2.532673   1.419297
     7  H    3.215880   3.673896   3.393644   2.191118   1.092462
     8  H    2.855694   3.689789   3.386631   2.191401   1.101716
     9  H    3.417962   3.337634   2.163556   1.092009   2.148899
    10  H    3.743293   3.341257   2.182493   1.092744   2.161821
    11  H    3.413322   2.162297   1.092777   2.186371   3.410400
    12  H    3.017710   2.155010   1.094137   2.171918   3.360673
    13  H    2.116185   1.096073   2.192900   3.117448   3.283946
    14  H    2.157273   1.095622   2.184470   3.501259   3.930538
    15  H    1.092209   2.180047   3.480984   3.881922   3.249482
    16  H    1.107747   2.186585   2.793927   2.985464   2.634473
                    6          7          8          9         10
     6  O    0.000000
     7  H    1.978901   0.000000
     8  H    2.058472   1.747018   0.000000
     9  H    3.264437   2.857436   2.265065   0.000000
    10  H    3.241753   2.289253   2.861816   1.712890   0.000000
    11  H    3.709321   3.910503   4.256401   2.841521   2.304309
    12  H    3.684517   4.227782   3.833119   2.257391   2.867757
    13  H    2.599337   3.759817   4.225274   4.045730   3.590052
    14  H    3.337367   4.749031   4.582806   4.060650   4.262496
    15  H    1.980506   3.951451   3.682868   4.504744   4.749985
    16  H    2.086174   3.653706   2.726258   3.224987   4.045751
                   11         12         13         14         15
    11  H    0.000000
    12  H    1.721615   0.000000
    13  H    2.388105   3.027822   0.000000
    14  H    2.665017   2.345810   1.747833   0.000000
    15  H    4.276892   3.966983   2.456893   2.514598   0.000000
    16  H    3.841831   2.927886   3.062156   2.543924   1.768106
                   16
    16  H    0.000000
 Stoichiometry    C5H10O
 Framework group  C1[X(C5H10O)]
 Deg. of freedom    42
 Full point group                 C1      NOp   1
 Largest Abelian subgroup         C1      NOp   1
 Largest concise Abelian subgroup C1      NOp   1
                         Standard orientation:                         
 ---------------------------------------------------------------------
 Center     Atomic      Atomic             Coordinates (Angstroms)
 Number     Number       Type             X           Y           Z
 ---------------------------------------------------------------------
      1          6           0       -0.440561   -1.268457    0.361166
      2          6           0       -1.424754   -0.278310   -0.230816
      3          6           0       -0.955533    1.164968    0.011100
      4          6           0        0.584733    1.344158    0.089888
      5          6           0        1.465286    0.075776   -0.026519
      6          8           0        0.801123   -1.150366   -0.290846
      7          1           0        2.168144    0.163148   -0.858281
      8          1           0        2.087784   -0.044154    0.874531
      9          1           0        0.829429    1.832313    1.035569
     10          1           0        0.914826    2.068428   -0.658818
     11          1           0       -1.373625    1.817855   -0.759029
     12          1           0       -1.405766    1.531864    0.938361
     13          1           0       -1.505448   -0.504366   -1.300285
     14          1           0       -2.425308   -0.441759    0.184591
     15          1           0       -0.736443   -2.304805    0.184091
     16          1           0       -0.337604   -1.144409    1.457121
 ---------------------------------------------------------------------
 Rotational constants (GHZ):      4.6088622      4.3750617      2.5133139
 Standard basis: 6-31G(d) (6D, 7F)
 There are   110 symmetry adapted basis functions of A   symmetry.
 Integral buffers will be    131072 words long.
 Raffenetti 2 integral format.
 Two-electron integral symmetry is turned on.
   110 basis functions,   208 primitive gaussians,   110 cartesian basis functions
    24 alpha electrons       24 beta electrons
       nuclear repulsion energy       257.9023504945 Hartrees.
 NAtoms=   16 NActive=   16 NUniq=   16 SFac= 1.00D+00 NAtFMM=   50 NAOKFM=F Big=F
 One-electron integrals computed using PRISM.
 NBasis=   110 RedAO= T  NBF=   110
 NBsUse=   110 1.00D-06 NBFU=   110
 Initial guess read from the read-write file.
 B after Tr=     0.000000    0.000000    0.000000
         Rot=    1.000000    0.000000    0.000000    0.000000 Ang=   0.00 deg.
 Initial guess orbital symmetries:
       Occupied  (A) (A) (A) (A) (A) (A) (A) (A) (A) (A) (A) (A)
                 (A) (A) (A) (A) (A) (A) (A) (A) (A) (A) (A) (A)
       Virtual   (A) (A) (A) (A) (A) (A) (A) (A) (A) (A) (A) (A)
                 (A) (A) (A) (A) (A) (A) (A) (A) (A) (A) (A) (A)
                 (A) (A) (A) (A) (A) (A) (A) (A) (A) (A) (A) (A)
                 (A) (A) (A) (A) (A) (A) (A) (A) (A) (A) (A) (A)
                 (A) (A) (A) (A) (A) (A) (A) (A) (A) (A) (A) (A)
                 (A) (A) (A) (A) (A) (A) (A) (A) (A) (A) (A) (A)
                 (A) (A) (A) (A) (A) (A) (A) (A) (A) (A) (A) (A)
                 (A) (A)
 Harris functional with IExCor= 1009 diagonalized for initial guess.
 ExpMin= 1.61D-01 ExpMax= 5.48D+03 ExpMxC= 8.25D+02 IAcc=1 IRadAn=         1 AccDes= 0.00D+00
 HarFok:  IExCor= 1009 AccDes= 0.00D+00 IRadAn=         1 IDoV= 1
 ScaDFX=  1.000000  1.000000  1.000000  1.000000
 FoFCou: FMM=F IPFlag=           0 FMFlag=      100000 FMFlg1=           0
         NFxFlg=           0 DoJE=T BraDBF=F KetDBF=T FulRan=T
         Omega=  0.000000  0.000000  1.000000  0.000000  0.000000 ICntrl=     500 IOpCl=  0
         NMat0=    1 NMatS0=    1 NMatT0=    0 NMatD0=    1 NMtDS0=    0 NMtDT0=    0
         I1Cent=           4 NGrid=           0.
 Petite list used in FoFCou.
 Requested convergence on RMS density matrix=1.00D-08 within 128 cycles.
 Requested convergence on MAX density matrix=1.00D-06.
 Requested convergence on             energy=1.00D-06.
 No special actions if energy rises.
 Keep R1 ints in memory in canonical form, NReq=19758713.
 Integral accuracy reduced to 1.0D-05 until final iterations.
 Initial convergence to 1.0D-05 achieved.  Increase integral accuracy.
 SCF Done:  E(RM062X) =  -271.620029779     A.U. after   15 cycles
             Convg  =    0.4887D-08             -V/T =  2.0086
 Calling FoFJK, ICntrl=      2127 FMM=F ISym2X=0 I1Cent= 0 IOpClX= 0 NMat=1 NMatS=1 NMatT=0.
 ***** Axes restored to original set *****
 -------------------------------------------------------------------
 Center     Atomic                   Forces (Hartrees/Bohr)
 Number     Number              X              Y              Z
 -------------------------------------------------------------------
      1        6           0.005012675   -0.004392362   -0.002807750
      2        6           0.003001321    0.001413245    0.000821429
      3        6           0.001223205    0.002790157   -0.000155842
      4        6          -0.004133292    0.000227069    0.000041855
      5        6           0.005077023   -0.007771244    0.002431172
      6        8          -0.007467148    0.002735256   -0.000726892
      7        1          -0.003652252    0.001024872    0.000626942
      8        1           0.001192139    0.003807084   -0.002146986
      9        1           0.001415930    0.000479242   -0.002533517
     10        1           0.002335347    0.000688092    0.004065202
     11        1          -0.000364559   -0.001583135    0.002409677
     12        1           0.001612202   -0.002528551   -0.002857056
     13        1          -0.002650713   -0.001951871    0.000288884
     14        1          -0.001863396    0.000613274   -0.001638045
     15        1           0.001947845    0.004123853   -0.000180287
     16        1          -0.002686327    0.000325018    0.002361215
 -------------------------------------------------------------------
 Cartesian Forces:  Max     0.007771244 RMS     0.002848498

 GradGradGradGradGradGradGradGradGradGradGradGradGradGradGradGradGradGrad
 Berny optimization.
 Using GEDIIS/GDIIS optimizer.
 Internal  Forces:  Max     0.004209010 RMS     0.001425871
 Search for a local minimum.
 Step number   3 out of a maximum of   99
 All quantities printed in internal units (Hartrees-Bohrs-Radians)
 Mixed Optimization -- RFO/linear search
 Update second derivatives using D2CorX and points    2    3
 DE= -1.22D-02 DEPred=-7.34D-03 R= 1.66D+00
 SS=  1.41D+00  RLast= 4.79D-01 DXNew= 8.4853D-01 1.4375D+00
 Trust test= 1.66D+00 RLast= 4.79D-01 DXMaxT set to 8.49D-01
 ITU=  1  1  0
 Use linear search instead of GDIIS.
     Eigenvalues ---    0.01970   0.02113   0.02434   0.03656   0.03915
     Eigenvalues ---    0.04690   0.05250   0.05953   0.06044   0.06168
     Eigenvalues ---    0.06561   0.06865   0.07266   0.08763   0.08996
     Eigenvalues ---    0.09599   0.10040   0.10489   0.11555   0.11978
     Eigenvalues ---    0.12739   0.12937   0.13821   0.18352   0.19288
     Eigenvalues ---    0.22017   0.34048   0.34126   0.34127   0.34128
     Eigenvalues ---    0.34129   0.34130   0.34131   0.34133   0.34139
     Eigenvalues ---    0.34228   0.37831   0.41376   0.42895   0.43959
     Eigenvalues ---    0.45576   0.45790
 RFO step:  Lambda=-1.40564495D-03 EMin= 1.97036713D-02
 Quartic linear search produced a step of -0.10063.
 Iteration  1 RMS(Cart)=  0.01504085 RMS(Int)=  0.00023702
 Iteration  2 RMS(Cart)=  0.00022133 RMS(Int)=  0.00008282
 Iteration  3 RMS(Cart)=  0.00000002 RMS(Int)=  0.00008282
 Variable       Old X    -DE/DX   Delta X   Delta X   Delta X     New X
                                 (Linear)    (Quad)   (Total)
    R1        2.86558  -0.00019  -0.01073   0.01255   0.00182   2.86740
    R2        2.65965   0.00254   0.00015   0.00534   0.00558   2.66523
    R3        2.06398   0.00141   0.00055   0.00315   0.00370   2.06767
    R4        2.09334  -0.00202  -0.00092  -0.00413  -0.00506   2.08828
    R5        2.90412  -0.00261  -0.01243   0.01053  -0.00195   2.90217
    R6        2.07128  -0.00020   0.00039  -0.00077  -0.00039   2.07089
    R7        2.07043   0.00016   0.00030   0.00020   0.00050   2.07092
    R8        2.93409  -0.00132  -0.01342   0.01427   0.00078   2.93487
    R9        2.06505   0.00097   0.00060   0.00198   0.00258   2.06763
   R10        2.06762   0.00085   0.00060   0.00173   0.00233   2.06995
   R11        2.92616   0.00026  -0.01274   0.01618   0.00344   2.92960
   R12        2.06360   0.00152   0.00061   0.00339   0.00400   2.06760
   R13        2.06499   0.00098   0.00057   0.00202   0.00259   2.06758
   R14        2.68208  -0.00206  -0.00139  -0.00265  -0.00397   2.67811
   R15        2.06445   0.00108   0.00051   0.00233   0.00283   2.06729
   R16        2.08194  -0.00042  -0.00036  -0.00059  -0.00095   2.08100
    A1        1.91448  -0.00137   0.00157  -0.00846  -0.00678   1.90770
    A2        1.96108  -0.00297  -0.00342  -0.01376  -0.01718   1.94389
    A3        1.95350  -0.00056  -0.00308  -0.00930  -0.01253   1.94097
    A4        1.81678   0.00421   0.00649   0.02975   0.03617   1.85295
    A5        1.94652  -0.00053  -0.00399  -0.00623  -0.01045   1.93607
    A6        1.86694   0.00155   0.00280   0.01077   0.01349   1.88043
    A7        1.93222  -0.00012   0.00267  -0.00260   0.00009   1.93231
    A8        1.86923   0.00038   0.00172  -0.00043   0.00119   1.87042
    A9        1.92547   0.00066  -0.00228   0.00777   0.00544   1.93091
   A10        1.94955  -0.00101  -0.00368  -0.00714  -0.01078   1.93877
   A11        1.93826  -0.00119  -0.00303  -0.01136  -0.01441   1.92386
   A12        1.84621   0.00141   0.00477   0.01500   0.01972   1.86593
   A13        2.00343   0.00123   0.00193   0.00324   0.00514   2.00856
   A14        1.91065  -0.00008  -0.00295   0.00078  -0.00216   1.90848
   A15        1.89937  -0.00090  -0.00131  -0.00564  -0.00694   1.89243
   A16        1.92448  -0.00133  -0.00283  -0.00667  -0.00946   1.91502
   A17        1.90340  -0.00083  -0.00133  -0.00888  -0.01023   1.89317
   A18        1.81262   0.00197   0.00706   0.01865   0.02569   1.83832
   A19        2.05531   0.00041   0.00174  -0.00225  -0.00051   2.05480
   A20        1.89423  -0.00113  -0.00159  -0.00930  -0.01092   1.88332
   A21        1.91919  -0.00060  -0.00423  -0.00264  -0.00690   1.91230
   A22        1.87952   0.00003  -0.00099  -0.00217  -0.00325   1.87627
   A23        1.89613  -0.00039  -0.00187  -0.00061  -0.00248   1.89365
   A24        1.80223   0.00193   0.00795   0.02010   0.02805   1.83028
   A25        2.04378  -0.00190   0.00110  -0.01007  -0.00886   2.03491
   A26        1.93648  -0.00270  -0.00291  -0.01132  -0.01424   1.92224
   A27        1.92729  -0.00134  -0.00259  -0.01443  -0.01717   1.91012
   A28        1.80119   0.00343   0.00472   0.02215   0.02680   1.82800
   A29        1.89936   0.00093  -0.00384   0.00041  -0.00379   1.89556
   A30        1.84198   0.00229   0.00421   0.01859   0.02270   1.86468
   A31        1.98128   0.00194   0.00062   0.00871   0.00969   1.99097
    D1       -1.10647   0.00141   0.00511   0.00376   0.00878  -1.09769
    D2        1.02278   0.00034   0.00332  -0.00682  -0.00361   1.01917
    D3        3.02409   0.00255   0.00873   0.01462   0.02328   3.04737
    D4       -3.11832  -0.00117  -0.00181  -0.01949  -0.02131  -3.13963
    D5       -0.98907  -0.00224  -0.00360  -0.03007  -0.03370  -1.02277
    D6        1.01224  -0.00003   0.00181  -0.00864  -0.00681   1.00543
    D7        1.06379  -0.00068  -0.00097  -0.01705  -0.01799   1.04581
    D8       -3.09014  -0.00175  -0.00276  -0.02763  -0.03037  -3.12052
    D9       -1.08884   0.00046   0.00265  -0.00620  -0.00348  -1.09232
   D10        1.18840   0.00029  -0.01210   0.01781   0.00585   1.19424
   D11       -2.99290  -0.00151  -0.01148   0.01415   0.00258  -2.99032
   D12       -0.98592   0.00238  -0.00657   0.04031   0.03375  -0.95217
   D13        0.52095   0.00021  -0.00034   0.00109   0.00074   0.52169
   D14        2.69574  -0.00070  -0.00501  -0.00473  -0.00976   2.68598
   D15       -1.61721   0.00111   0.00107   0.01472   0.01578  -1.60143
   D16       -1.56051   0.00048  -0.00181   0.00805   0.00621  -1.55430
   D17        0.61428  -0.00043  -0.00648   0.00223  -0.00429   0.60999
   D18        2.58451   0.00138  -0.00040   0.02168   0.02125   2.60577
   D19        2.66618   0.00014  -0.00352   0.00126  -0.00225   2.66392
   D20       -1.44222  -0.00077  -0.00820  -0.00456  -0.01275  -1.45498
   D21        0.52801   0.00104  -0.00211   0.01489   0.01279   0.54080
   D22       -0.03868   0.00017   0.00284  -0.00946  -0.00664  -0.04532
   D23       -2.17823   0.00078   0.00425   0.00292   0.00713  -2.17110
   D24        2.14530  -0.00059  -0.00209  -0.01452  -0.01663   2.12866
   D25       -2.20616   0.00041   0.00759  -0.00758   0.00001  -2.20615
   D26        1.93747   0.00103   0.00900   0.00481   0.01378   1.95125
   D27       -0.02219  -0.00034   0.00266  -0.01264  -0.00998  -0.03217
   D28        2.09731  -0.00077   0.00145  -0.02135  -0.01991   2.07740
   D29       -0.04224  -0.00015   0.00286  -0.00897  -0.00614  -0.04838
   D30       -2.00190  -0.00152  -0.00348  -0.02641  -0.02990  -2.03180
   D31        0.07473  -0.00005  -0.00705   0.01926   0.01223   0.08696
   D32        2.13553   0.00104  -0.00231   0.03265   0.03034   2.16587
   D33       -2.11157   0.00140  -0.00044   0.03978   0.03924  -2.07233
   D34        2.22174  -0.00125  -0.00877   0.00335  -0.00539   2.21635
   D35       -2.00064  -0.00016  -0.00403   0.01674   0.01272  -1.98792
   D36        0.03545   0.00020  -0.00216   0.02387   0.02162   0.05707
   D37       -2.12059   0.00081  -0.00096   0.02525   0.02432  -2.09627
   D38       -0.05979   0.00190   0.00378   0.03864   0.04243  -0.01736
   D39        1.97630   0.00226   0.00565   0.04577   0.05133   2.02763
   D40       -0.65047  -0.00061   0.01177  -0.02661  -0.01497  -0.66544
   D41       -2.78296   0.00139   0.01116  -0.02281  -0.01157  -2.79453
   D42        1.54971  -0.00314   0.00585  -0.05410  -0.04840   1.50131
         Item               Value     Threshold  Converged?
 Maximum Force            0.004209     0.000450     NO 
 RMS     Force            0.001426     0.000300     NO 
 Maximum Displacement     0.057104     0.001800     NO 
 RMS     Displacement     0.015051     0.001200     NO 
 Predicted change in Energy=-8.574686D-04
 GradGradGradGradGradGradGradGradGradGradGradGradGradGradGradGradGradGrad

                          Input orientation:                          
 ---------------------------------------------------------------------
 Center     Atomic      Atomic             Coordinates (Angstroms)
 Number     Number       Type             X           Y           Z
 ---------------------------------------------------------------------
      1          6           0        1.332167   -0.042361   -0.342616
      2          6           0        0.777178    1.234189    0.261365
      3          6           0       -0.731290    1.349098   -0.002998
      4          6           0       -1.484879   -0.004183   -0.115896
      5          6           0       -0.648950   -1.305926   -0.015679
      6          8           0        0.728494   -1.154048    0.281005
      7          1           0       -1.037505   -1.942311    0.784815
      8          1           0       -0.745774   -1.876741   -0.952413
      9          1           0       -2.004923   -0.020355   -1.078396
     10          1           0       -2.280697   -0.044090    0.633885
     11          1           0       -1.190330    1.963354    0.777463
     12          1           0       -0.878129    1.906822   -0.934243
     13          1           0        0.987647    1.201557    1.336337
     14          1           0        1.299905    2.110060   -0.139347
     15          1           0        2.406688   -0.136240   -0.158796
     16          1           0        1.173997   -0.069025   -1.435985
 ---------------------------------------------------------------------
                    Distance matrix (angstroms):
                    1          2          3          4          5
     1  C    0.000000
     2  C    1.517361   0.000000
     3  C    2.511843   1.535764   0.000000
     4  C    2.826412   2.606299   1.553065   0.000000
     5  C    2.372405   2.926222   2.656330   1.550276   0.000000
     6  O    1.410379   2.388813   2.911591   2.525616   1.417194
     7  H    3.239792   3.695568   3.398204   2.183521   1.093961
     8  H    2.838069   3.670221   3.362683   2.180025   1.101215
     9  H    3.417312   3.333006   2.157318   1.094127   2.149587
    10  H    3.742505   3.335171   2.178819   1.094117   2.162583
    11  H    3.411812   2.160817   1.094142   2.180837   3.407397
    12  H    3.005786   2.149874   1.095370   2.165590   3.349333
    13  H    2.117761   1.095868   2.184109   3.110655   3.285402
    14  H    2.162239   1.095886   2.173341   3.496512   3.934754
    15  H    1.094166   2.170233   3.475257   3.894043   3.274992
    16  H    1.105072   2.176426   2.773922   2.969252   2.621131
                    6          7          8          9         10
     6  O    0.000000
     7  H    1.998483   0.000000
     8  H    2.053550   1.762772   0.000000
     9  H    3.256501   2.846291   2.246664   0.000000
    10  H    3.226726   2.274105   2.868962   1.734510   0.000000
    11  H    3.694123   3.908661   4.235142   2.835996   2.288961
    12  H    3.664286   4.218577   3.785922   2.237064   2.869195
    13  H    2.594178   3.780123   4.209399   4.034784   3.567513
[...]
 H,0,1.4253663924,-0.0954039017,-1.2847000027
 Recover connectivity data from disk.
                          Input orientation:                          
 ---------------------------------------------------------------------
 Center     Atomic      Atomic             Coordinates (Angstroms)
 Number     Number       Type             X           Y           Z
 ---------------------------------------------------------------------
      1          6           0        1.355096   -0.076916   -0.182719
      2          6           0        0.703778    1.227544    0.267138
      3          6           0       -0.743987    1.281865   -0.227030
      4          6           0       -1.479579    0.007404    0.194597
      5          6           0       -0.687038   -1.218144   -0.251231
      6          8           0        0.628081   -1.202803    0.265743
      7          1           0       -1.145735   -2.144132    0.105862
      8          1           0       -0.652006   -1.255703   -1.354412
      9          1           0       -2.488471   -0.026904   -0.231621
     10          1           0       -1.578217   -0.018359    1.286633
     11          1           0       -1.254398    2.172503    0.153629
     12          1           0       -0.747713    1.353742   -1.323815
     13          1           0        0.721919    1.267592    1.363054
     14          1           0        1.281986    2.080075   -0.106464
     15          1           0        2.364518   -0.182562    0.223837
     16          1           0        1.425366   -0.095404   -1.284700
 ---------------------------------------------------------------------
                    Distance matrix (angstroms):
                    1          2          3          4          5
     1  C    0.000000
     2  C    1.525846   0.000000
     3  C    2.500880   1.530744   0.000000
     4  C    2.860919   2.502209   1.530724   0.000000
     5  C    2.340386   2.860851   2.500775   1.526058   0.000000
     6  O    1.413255   2.431526   2.880794   2.431439   1.413165
     7  H    3.257425   3.849014   3.465498   2.179090   1.093331
     8  H    2.605928   3.260996   2.778255   2.163272   1.104376
     9  H    3.844203   3.465956   2.180853   1.095766   2.159768
    10  H    3.281272   2.792695   2.162799   1.096784   2.144460
    11  H    3.461571   2.177219   1.094832   2.177163   3.461546
    12  H    2.787596   2.157286   1.099144   2.157273   2.787242
    13  H    2.144301   1.096797   2.162742   2.792840   3.281761
    14  H    2.159576   1.095769   2.180881   3.465954   3.843990
    15  H    1.093335   2.179067   3.465636   3.848899   3.257317
    16  H    1.104374   2.163119   2.778782   3.261533   2.605927
                    6          7          8          9         10
     6  O    0.000000
     7  H    2.014470   0.000000
     8  H    2.065509   1.779178   0.000000
     9  H    3.367938   2.529721   2.478550   0.000000
    10  H    2.704233   2.469853   3.060066   1.770234   0.000000
    11  H    3.866392   4.318267   3.793371   2.551224   2.487656
    12  H    3.309899   3.799674   2.611379   2.475744   3.063794
    13  H    2.704763   4.087606   3.954656   3.811208   2.636311
    14  H    3.367998   4.876764   4.052790   4.321038   3.811155
    15  H    2.014413   4.022879   3.569583   4.876799   4.086766
    16  H    2.065398   3.569525   2.380468   4.053614   3.954643
                   11         12         13         14         15
    11  H    0.000000
    12  H    1.763502   0.000000
    13  H    2.487449   3.063740   0.000000
    14  H    2.551359   2.475718   1.770109   0.000000
    15  H    4.318312   3.800190   2.469593   2.529920   0.000000
    16  H    3.793854   2.612246   3.059934   2.478206   1.779126
                   16
    16  H    0.000000
 Stoichiometry    C5H10O
 Framework group  C1[X(C5H10O)]
 Deg. of freedom    42
 Full point group                 C1      NOp   1
 Largest Abelian subgroup         C1      NOp   1
 Largest concise Abelian subgroup C1      NOp   1
                         Standard orientation:                         
 ---------------------------------------------------------------------
 Center     Atomic      Atomic             Coordinates (Angstroms)
 Number     Number       Type             X           Y           Z
 ---------------------------------------------------------------------
      1          6           0       -1.170823   -0.767414    0.202536
      2          6           0       -1.250585    0.694477   -0.227250
      3          6           0        0.001161    1.441536    0.239881
      4          6           0        1.251623    0.692586   -0.227595
      5          6           0        1.169562   -0.769198    0.202875
      6          8           0       -0.000980   -1.390499   -0.287893
      7          1           0        2.010499   -1.349671   -0.186032
      8          1           0        1.189395   -0.832621    1.305250
      9          1           0        2.161441    1.149174    0.177942
     10          1           0        1.318475    0.731592   -1.321645
     11          1           0        0.001926    2.472597   -0.128315
     12          1           0        0.001350    1.492628    1.337837
     13          1           0       -1.317835    0.734064   -1.321268
     14          1           0       -2.159595    1.152358    0.178651
     15          1           0       -2.012379   -1.346692   -0.186827
     16          1           0       -1.191073   -0.831349    1.304872
 ---------------------------------------------------------------------
 Rotational constants (GHZ):      4.7028112      4.5205135      2.6180253
 Standard basis: 6-311++G(d,p) (5D, 7F)
 There are   202 symmetry adapted basis functions of A   symmetry.
 Integral buffers will be    131072 words long.
 Raffenetti 2 integral format.
 Two-electron integral symmetry is turned on.
   202 basis functions,   306 primitive gaussians,   208 cartesian basis functions
    24 alpha electrons       24 beta electrons
       nuclear repulsion energy       260.6308299175 Hartrees.
 NAtoms=   16 NActive=   16 NUniq=   16 SFac= 1.00D+00 NAtFMM=   50 NAOKFM=F Big=F
 One-electron integrals computed using PRISM.
 NBasis=   202 RedAO= T  NBF=   202
 NBsUse=   202 1.00D-06 NBFU=   202
 Initial guess read from the checkpoint file:  /home/hmayes/gaussian/pucker/chks/1E00.chk
 B after Tr=     0.000000    0.000000    0.000000
         Rot=    1.000000    0.000000    0.000000    0.000000 Ang=   0.00 deg.
 Initial guess orbital symmetries:
       Occupied  (A) (A) (A) (A) (A) (A) (A) (A) (A) (A) (A) (A)
                 (A) (A) (A) (A) (A) (A) (A) (A) (A) (A) (A) (A)
       Virtual   (A) (A) (A) (A) (A) (A) (A) (A) (A) (A) (A) (A)
                 (A) (A) (A) (A) (A) (A) (A) (A) (A) (A) (A) (A)
                 (A) (A) (A) (A) (A) (A) (A) (A) (A) (A) (A) (A)
                 (A) (A) (A) (A) (A) (A) (A) (A) (A) (A) (A) (A)
                 (A) (A) (A) (A) (A) (A) (A) (A) (A) (A) (A) (A)
                 (A) (A) (A) (A) (A) (A) (A) (A) (A) (A) (A) (A)
                 (A) (A) (A) (A) (A) (A) (A) (A) (A) (A) (A) (A)
                 (A) (A) (A) (A) (A) (A) (A) (A) (A) (A) (A) (A)
                 (A) (A) (A) (A) (A) (A) (A) (A) (A) (A) (A) (A)
                 (A) (A) (A) (A) (A) (A) (A) (A) (A) (A) (A) (A)
                 (A) (A) (A) (A) (A) (A) (A) (A) (A) (A) (A) (A)
                 (A) (A) (A) (A) (A) (A) (A) (A) (A) (A) (A) (A)
                 (A) (A) (A) (A) (A) (A) (A) (A) (A) (A) (A) (A)
                 (A) (A) (A) (A) (A) (A) (A) (A) (A) (A) (A) (A)
                 (A) (A) (A) (A) (A) (A) (A) (A) (A) (A)
 Requested convergence on RMS density matrix=1.00D-08 within 128 cycles.
 Requested convergence on MAX density matrix=1.00D-06.
 Requested convergence on             energy=1.00D-06.
 No special actions if energy rises.
 Keep R1 ints in memory in canonical form, NReq=241092331.
 SCF Done:  E(RM062X) =  -271.718573181     A.U. after   11 cycles
             Convg  =    0.3622D-08             -V/T =  2.0042

 **********************************************************************

            Population analysis using the SCF density.

 **********************************************************************

 Orbital symmetries:
       Occupied  (A) (A) (A) (A) (A) (A) (A) (A) (A) (A) (A) (A)
                 (A) (A) (A) (A) (A) (A) (A) (A) (A) (A) (A) (A)
       Virtual   (A) (A) (A) (A) (A) (A) (A) (A) (A) (A) (A) (A)
                 (A) (A) (A) (A) (A) (A) (A) (A) (A) (A) (A) (A)
                 (A) (A) (A) (A) (A) (A) (A) (A) (A) (A) (A) (A)
                 (A) (A) (A) (A) (A) (A) (A) (A) (A) (A) (A) (A)
                 (A) (A) (A) (A) (A) (A) (A) (A) (A) (A) (A) (A)
                 (A) (A) (A) (A) (A) (A) (A) (A) (A) (A) (A) (A)
                 (A) (A) (A) (A) (A) (A) (A) (A) (A) (A) (A) (A)
                 (A) (A) (A) (A) (A) (A) (A) (A) (A) (A) (A) (A)
                 (A) (A) (A) (A) (A) (A) (A) (A) (A) (A) (A) (A)
                 (A) (A) (A) (A) (A) (A) (A) (A) (A) (A) (A) (A)
                 (A) (A) (A) (A) (A) (A) (A) (A) (A) (A) (A) (A)
                 (A) (A) (A) (A) (A) (A) (A) (A) (A) (A) (A) (A)
                 (A) (A) (A) (A) (A) (A) (A) (A) (A) (A) (A) (A)
                 (A) (A) (A) (A) (A) (A) (A) (A) (A) (A) (A) (A)
                 (A) (A) (A) (A) (A) (A) (A) (A) (A) (A)
 The electronic state is 1-A.
 Alpha  occ. eigenvalues --  -19.61881 -10.57898 -10.57897 -10.53570 -10.53253
 Alpha  occ. eigenvalues --  -10.53250  -1.15920  -0.90024  -0.86017  -0.73041
 Alpha  occ. eigenvalues --   -0.72210  -0.64601  -0.57364  -0.54390  -0.52447
 Alpha  occ. eigenvalues --   -0.51442  -0.48468  -0.45179  -0.45072  -0.41384
 Alpha  occ. eigenvalues --   -0.39839  -0.38086  -0.36480  -0.31851
 Alpha virt. eigenvalues --   -0.00057   0.01231   0.01256   0.01830   0.03854
 Alpha virt. eigenvalues --    0.03959   0.04133   0.04535   0.05023   0.07345
 Alpha virt. eigenvalues --    0.08374   0.09877   0.10287   0.11140   0.11173
 Alpha virt. eigenvalues --    0.11952   0.13014   0.13434   0.13905   0.14108
 Alpha virt. eigenvalues --    0.14394   0.15481   0.16047   0.16314   0.16486
 Alpha virt. eigenvalues --    0.16938   0.17183   0.17806   0.18299   0.19618
 Alpha virt. eigenvalues --    0.22072   0.22579   0.25952   0.25979   0.27279
 Alpha virt. eigenvalues --    0.27917   0.27987   0.29040   0.30421   0.32778
 Alpha virt. eigenvalues --    0.33365   0.33560   0.34714   0.35939   0.36561
 Alpha virt. eigenvalues --    0.37451   0.37470   0.37869   0.38927   0.41976
 Alpha virt. eigenvalues --    0.48520   0.48825   0.50938   0.51011   0.53381
 Alpha virt. eigenvalues --    0.57337   0.60258   0.63447   0.64253   0.66255
 Alpha virt. eigenvalues --    0.67744   0.68915   0.70102   0.71562   0.72315
 Alpha virt. eigenvalues --    0.73120   0.73713   0.73799   0.75743   0.78072
 Alpha virt. eigenvalues --    0.78387   0.79959   0.80042   0.81417   0.91654
 Alpha virt. eigenvalues --    0.92673   0.95254   1.02930   1.04610   1.07891
 Alpha virt. eigenvalues --    1.11728   1.11926   1.17678   1.25293   1.26896
 Alpha virt. eigenvalues --    1.27262   1.31951   1.34470   1.38888   1.45916
 Alpha virt. eigenvalues --    1.49936   1.55330   1.57786   1.59084   1.59578
 Alpha virt. eigenvalues --    1.61709   1.62211   1.63726   1.64626   1.64696
 Alpha virt. eigenvalues --    1.65339   1.68067   1.72059   1.74117   1.75976
 Alpha virt. eigenvalues --    1.77218   1.77481   1.79313   1.82361   1.82808
 Alpha virt. eigenvalues --    1.84006   1.87467   1.89652   1.90287   1.91400
 Alpha virt. eigenvalues --    2.01989   2.02690   2.07423   2.08299   2.18391
 Alpha virt. eigenvalues --    2.20020   2.22577   2.22950   2.25807   2.31253
 Alpha virt. eigenvalues --    2.31977   2.36345   2.37547   2.44734   2.49058
 Alpha virt. eigenvalues --    2.52893   2.54528   2.55827   2.57999   2.63280
 Alpha virt. eigenvalues --    2.64950   2.68747   2.69869   2.72454   2.74818
 Alpha virt. eigenvalues --    2.76297   2.79672   2.81019   2.85086   2.88785
 Alpha virt. eigenvalues --    2.89093   2.90338   2.96625   2.99996   3.01820
 Alpha virt. eigenvalues --    3.04437   3.12032   3.16825   3.26717   3.29523
 Alpha virt. eigenvalues --    3.37578   3.41364   3.47148   3.80988   3.82473
 Alpha virt. eigenvalues --    3.88009   3.88511   3.92661   4.08458   4.12751
 Alpha virt. eigenvalues --    4.18885   4.20480   4.35783   4.37596   5.25789
 Alpha virt. eigenvalues --    5.51782   5.78558  23.90829  23.97405  23.98653
 Alpha virt. eigenvalues --   24.00952  24.02997  50.05633
          Condensed to atoms (all electrons):
              1          2          3          4          5          6
     1  C    5.802576   0.037603  -0.232712   0.216934  -0.290656   0.202507
     2  C    0.037603   5.604728   0.000833  -0.110758   0.217153  -0.083198
     3  C   -0.232712   0.000833   5.878889   0.001054  -0.232991  -0.011245
     4  C    0.216934  -0.110758   0.001054   5.604178   0.038212  -0.083249
     5  C   -0.290656   0.217153  -0.232991   0.038212   5.802326   0.202459
     6  O    0.202507  -0.083198  -0.011245  -0.083249   0.202459   8.096078
     7  H    0.025393  -0.004117  -0.001317  -0.034478   0.426283  -0.084396
     8  H   -0.036093  -0.010210   0.043114  -0.065157   0.364011  -0.038544
     9  H    0.000986   0.022360  -0.073390   0.376777   0.002903   0.010450
    10  H   -0.016354  -0.054329   0.047643   0.488152  -0.135128   0.001032
    11  H    0.014812  -0.030462   0.347669  -0.030493   0.014787   0.006231
    12  H   -0.031859  -0.062498   0.561689  -0.062397  -0.031907  -0.000288
    13  H   -0.135134   0.488257   0.047522  -0.054319  -0.016314   0.001038
    14  H    0.002867   0.376846  -0.073360   0.022356   0.000944   0.010445
    15  H    0.426257  -0.034464  -0.001291  -0.004142   0.025409  -0.084405
    16  H    0.364237  -0.065164   0.043046  -0.010204  -0.036150  -0.038582
              7          8          9         10         11         12
     1  C    0.025393  -0.036093   0.000986  -0.016354   0.014812  -0.031859
     2  C   -0.004117  -0.010210   0.022360  -0.054329  -0.030462  -0.062498
     3  C   -0.001317   0.043114  -0.073390   0.047643   0.347669   0.561689
     4  C   -0.034478  -0.065157   0.376777   0.488152  -0.030493  -0.062397
     5  C    0.426283   0.364011   0.002903  -0.135128   0.014787  -0.031907
     6  O   -0.084396  -0.038544   0.010450   0.001032   0.006231  -0.000288
     7  H    0.514999  -0.025899  -0.004619  -0.007646  -0.002419  -0.000173
     8  H   -0.025899   0.595195   0.002456   0.003167   0.008821  -0.011359
     9  H   -0.004619   0.002456   0.531265  -0.022459  -0.004123  -0.009193
    10  H   -0.007646   0.003167  -0.022459   0.511018  -0.003572   0.004800
    11  H   -0.002419   0.008821  -0.004123  -0.003572   0.542368  -0.027098
    12  H   -0.000173  -0.011359  -0.009193   0.004800  -0.027098   0.503924
    13  H   -0.000982   0.002590  -0.005202   0.009124  -0.003577   0.004800
    14  H    0.001134   0.000015   0.001920  -0.005196  -0.004136  -0.009182
    15  H    0.002494  -0.007683   0.001134  -0.000981  -0.002416  -0.000176
    16  H   -0.007690   0.029794   0.000013   0.002589   0.008813  -0.011340
             13         14         15         16
     1  C   -0.135134   0.002867   0.426257   0.364237
     2  C    0.488257   0.376846  -0.034464  -0.065164
     3  C    0.047522  -0.073360  -0.001291   0.043046
     4  C   -0.054319   0.022356  -0.004142  -0.010204
     5  C   -0.016314   0.000944   0.025409  -0.036150
     6  O    0.001038   0.010445  -0.084405  -0.038582
     7  H   -0.000982   0.001134   0.002494  -0.007690
     8  H    0.002590   0.000015  -0.007683   0.029794
     9  H   -0.005202   0.001920   0.001134   0.000013
    10  H    0.009124  -0.005196  -0.000981   0.002589
    11  H   -0.003577  -0.004136  -0.002416   0.008813
    12  H    0.004800  -0.009182  -0.000176  -0.011340
    13  H    0.511012  -0.022460  -0.007651   0.003157
    14  H   -0.022460   0.531272  -0.004612   0.002435
    15  H   -0.007651  -0.004612   0.515007  -0.025872
    16  H    0.003157   0.002435  -0.025872   0.595044
 Mulliken atomic charges:
              1
     1  C   -0.351366
     2  C   -0.292581
     3  C   -0.345155
     4  C   -0.292468
     5  C   -0.351340
     6  O   -0.106332
     7  H    0.203433
     8  H    0.145782
     9  H    0.168722
    10  H    0.178139
    11  H    0.164792
    12  H    0.182256
    13  H    0.178139
    14  H    0.168713
    15  H    0.203392
    16  H    0.145873
 Sum of Mulliken atomic charges =   0.00000
 Mulliken charges with hydrogens summed into heavy atoms:
              1
     1  C   -0.002100
     2  C    0.054271
     3  C    0.001893
     4  C    0.054393
     5  C   -0.002125
     6  O   -0.106332
 Sum of Mulliken charges with hydrogens summed into heavy atoms =   0.00000
 Electronic spatial extent (au):  <R**2>=            542.7852
 Charge=              0.0000 electrons
 Dipole moment (field-independent basis, Debye):
    X=              0.0006    Y=              1.4529    Z=              0.7544  Tot=              1.6370
 Quadrupole moment (field-independent basis, Debye-Ang):
   XX=            -35.6684   YY=            -41.8175   ZZ=            -38.7926
   XY=             -0.0042   XZ=             -0.0004   YZ=             -1.3025
 Traceless Quadrupole moment (field-independent basis, Debye-Ang):
   XX=              3.0911   YY=             -3.0580   ZZ=             -0.0331
   XY=             -0.0042   XZ=             -0.0004   YZ=             -1.3025
 Octapole moment (field-independent basis, Debye-Ang**2):
  XXX=             -0.0120  YYY=              1.6751  ZZZ=             -0.9099  XYY=              0.0079
  XXY=             -5.1130  XXZ=             -0.7476  XZZ=             -0.0015  YZZ=             -1.0068
  YYZ=              0.7668  XYZ=              0.0004
 Hexadecapole moment (field-independent basis, Debye-Ang**3):
 XXXX=           -320.9283 YYYY=           -326.3634 ZZZZ=            -91.4301 XXXY=              0.0097
 XXXZ=              0.0105 YYYX=             -0.0167 YYYZ=             -2.0059 ZZZX=              0.0001
 ZZZY=             -0.6516 XXYY=           -101.3308 XXZZ=            -71.0660 YYZZ=            -69.9735
 XXYZ=              4.0023 YYXZ=             -0.0062 ZZXY=              0.0006
 N-N= 2.606308299175D+02 E-N=-1.153998767940D+03  KE= 2.705852219212D+02
 1\1\GINC-RR27\SP\RM062X\6-311++G(d,p)\C5H10O1\HMAYES\06-Jun-2012\0\\# 
 m062x/6-311++G(d,p) geom=allcheck guess=read\\from http://6ring.bio.nr
 c.ca/suppl.html\\0,1\C,0,1.3550959215,-0.0769162322,-0.1827188504\C,0,
 0.7037776919,1.2275444922,0.2671381866\C,0,-0.7439871275,1.2818652871,
 -0.2270304869\C,0,-1.4795786752,0.007404248,0.194597004\C,0,-0.6870377
 695,-1.2181440968,-0.2512309965\O,0,0.6280814531,-1.2028025353,0.26574
 34842\H,0,-1.1457349022,-2.1441320517,0.1058615162\H,0,-0.6520061583,-
 1.2557027698,-1.354411983\H,0,-2.4884707519,-0.0269039256,-0.231621245
 4\H,0,-1.5782172595,-0.0183587516,1.2866326275\H,0,-1.2543979863,2.172
 5034882,0.1536287536\H,0,-0.7477134394,1.3537420901,-1.3238150739\H,0,
 0.7219186837,1.2675917143,1.3630536667\H,0,1.2819858076,2.0800745032,-
 0.1064640515\H,0,2.3645181197,-0.1825615584,0.2238374513\H,0,1.4253663
 924,-0.0954039017,-1.2847000027\\Version=EM64L-G09RevB.01\State=1-A\HF
 =-271.7185732\RMSD=3.622e-09\Dipole=-0.2730649,0.5063187,-0.2896216\Qu
 adrupole=1.2267381,-1.2275392,0.0008011,1.9414345,-0.3997792,0.8535185
 \PG=C01 [X(C5H10O1)]\\@


 IF YOU WANT TO LEARN FROM THE THEORETICAL PHYSICISTS ABOUT THE
 METHODS WHICH THEY USE, I ADVISE YOU TO FOLLOW THIS PRINCIPLE VERY STRICTLY:
 DON'T LISTEN TO THEIR WORDS; PAY ATTENTION, INSTEAD, TO THEIR ACTIONS.
 -- A.EINSTEIN, 1934
 Job cpu time:  0 days  0 hours  4 minutes 18.8 seconds.
 File lengths (MBytes):  RWF=     21 Int=      0 D2E=      0 Chk=      3 Scr=      1
 Normal termination of Gaussian 09 at Wed Jun  6 09:43:57 2012.
