 Entering Gaussian System, Link 0=g09
 Initial command:
 /opt/gaussian//g09/l1.exe /scratch/g09/Gau-12304.inp -scrdir=/scratch/g09/
 Entering Link 1 = /opt/gaussian//g09/l1.exe PID=     12305.
  
 Copyright (c) 1988,1990,1992,1993,1995,1998,2003,2009,2010,
            Gaussian, Inc.  All Rights Reserved.
  
 This is part of the Gaussian(R) 09 program.  It is based on
 the Gaussian(R) 03 system (copyright 2003, Gaussian, Inc.),
 the Gaussian(R) 98 system (copyright 1998, Gaussian, Inc.),
 the Gaussian(R) 94 system (copyright 1995, Gaussian, Inc.),
 the Gaussian 92(TM) system (copyright 1992, Gaussian, Inc.),
 the Gaussian 90(TM) system (copyright 1990, Gaussian, Inc.),
 the Gaussian 88(TM) system (copyright 1988, Gaussian, Inc.),
 the Gaussian 86(TM) system (copyright 1986, Carnegie Mellon
 University), and the Gaussian 82(TM) system (copyright 1983,
 Carnegie Mellon University). Gaussian is a federally registered
 trademark of Gaussian, Inc.
  
 This software contains proprietary and confidential information,
 including trade secrets, belonging to Gaussian, Inc.
  
 This software is provided under written license and may be
 used, copied, transmitted, or stored only in accord with that
 written license.
  
 The following legend is applicable only to US Government
 contracts under FAR:
  
                    RESTRICTED RIGHTS LEGEND
  
 Use, reproduction and disclosure by the US Government is
 subject to restrictions as set forth in subparagraphs (a)
 and (c) of the Commercial Computer Software - Restricted
 Rights clause in FAR 52.227-19.
  
 Gaussian, Inc.
 340 Quinnipiac St., Bldg. 40, Wallingford CT 06492
  
  
 ---------------------------------------------------------------
 Warning -- This program may not be used in any manner that
 competes with the business of Gaussian, Inc. or will provide
 assistance to any competitor of Gaussian, Inc.  The licensee
 of this program is prohibited from giving any competitor of
 Gaussian, Inc. access to this program.  By using this program,
 the user acknowledges that Gaussian, Inc. is engaged in the
 business of creating and licensing software in the field of
 computational chemistry and represents and warrants to the
 licensee that it is not a competitor of Gaussian, Inc. and that
 it will not use this program in any manner prohibited above.
 ---------------------------------------------------------------
  

 Cite this work as:
 Gaussian 09, Revision B.01,
 M. J. Frisch, G. W. Trucks, H. B. Schlegel, G. E. Scuseria, 
 M. A. Robb, J. R. Cheeseman, G. Scalmani, V. Barone, B. Mennucci, 
 G. A. Petersson, H. Nakatsuji, M. Caricato, X. Li, H. P. Hratchian, 
 A. F. Izmaylov, J. Bloino, G. Zheng, J. L. Sonnenberg, M. Hada, 
 M. Ehara, K. Toyota, R. Fukuda, J. Hasegawa, M. Ishida, T. Nakajima, 
 Y. Honda, O. Kitao, H. Nakai, T. Vreven, J. A. Montgomery, Jr., 
 J. E. Peralta, F. Ogliaro, M. Bearpark, J. J. Heyd, E. Brothers, 
 K. N. Kudin, V. N. Staroverov, T. Keith, R. Kobayashi, J. Normand, 
 K. Raghavachari, A. Rendell, J. C. Burant, S. S. Iyengar, J. Tomasi, 
 M. Cossi, N. Rega, J. M. Millam, M. Klene, J. E. Knox, J. B. Cross, 
 V. Bakken, C. Adamo, J. Jaramillo, R. Gomperts, R. E. Stratmann, 
 O. Yazyev, A. J. Austin, R. Cammi, C. Pomelli, J. W. Ochterski, 
 R. L. Martin, K. Morokuma, V. G. Zakrzewski, G. A. Voth, 
 P. Salvador, J. J. Dannenberg, S. Dapprich, A. D. Daniels, 
 O. Farkas, J. B. Foresman, J. V. Ortiz, J. Cioslowski, 
 and D. J. Fox, Gaussian, Inc., Wallingford CT, 2010.
 
 ******************************************
 Gaussian 09:  EM64L-G09RevB.01 12-Aug-2010
                26-May-2011 
 ******************************************
 %chk=gaussian/glucose/d-glucoseStruct8TS.chk
 %mem=15GB
 %nproc=8
 Will use up to    8 processors via shared memory.
 -------------------------------------------------------
 # opt(TS,calcFC,noeigen) freq b3lyp/6-31g(2df,p) nosymm
 -------------------------------------------------------
 1/5=1,10=4,11=1,14=-1,18=20,26=3,38=1/1,3;
 2/9=110,12=2,15=1,17=6,18=5,40=1/2;
 3/5=1,6=6,7=104,11=2,16=1,25=1,30=1,71=2,74=-5/1,2,3;
 4//1;
 5/5=2,38=5/2;
 8/6=4,10=90,11=11/1;
 11/6=1,8=1,9=11,15=111,16=1,31=1/1,2,10;
 10/6=1,7=6,13=1,31=1/2;
 6/7=2,8=2,9=2,10=2,28=1/1;
 7/10=1,18=20,25=1,30=1/1,2,3,16;
 1/5=1,10=4,11=1,14=-1,18=20/3(2);
 2/9=110,15=1/2;
 99//99;
 2/9=110,15=1/2;
 3/5=1,6=6,7=104,11=2,16=1,25=1,30=1,71=1,74=-5/1,2,3;
 4/5=5,16=3/1;
 5/5=2,38=5/2;
 7/30=1/1,2,3,16;
 1/5=1,11=1,14=-1,18=20/3(-5);
 2/9=110,15=1/2;
 6/7=2,8=2,9=2,10=2,19=2,28=1/1;
 99/9=1/99;
 ----------------------------------------------------------------------
 d-glucoseStruct8TS from d-glucoseHough_rev1.log altered to look like T
 S from Abella paper
 ----------------------------------------------------------------------
 Symbolic Z-matrix:
 Charge =  0 Multiplicity = 1
 6                     1.49075   0.69135   0.43138 
 6                     0.93851  -0.12104   1.533 
 6                     1.63657   0.1035    2.87437 
 6                     3.11442  -0.24812   2.76979 
 6                     3.75926   0.5634    1.64256 
 6                     5.19169   0.12993   1.3455 
 8                     1.77741   2.05265   0.68351 
 8                    -0.43497   0.22539   1.6064 
 8                     1.06797  -0.70491   3.89169 
 8                     3.80202   0.065     3.96804 
 8                     3.21865   0.33236   0.40511 
 8                     5.25417  -1.2042    0.88018 
 1                     1.12587   0.39344  -0.55928 
 1                     0.11304  -0.57548   3.84278 
 1                     3.29419  -0.3336    4.68416 
 1                     4.64219  -1.25556   0.1368 
 1                     0.97656  -1.18795   1.29009 
 1                     1.55513   1.16889   3.14288 
 1                     3.21252  -1.31754   2.53031 
 1                     3.74695   1.62536   1.92064 
 1                     5.63016   0.82993   0.61765 
 1                     5.77316   0.18002   2.26932 
 1                     3.14798   1.7679    0.66267 
 1                    -0.4694    1.18872   1.53722 
 

 GradGradGradGradGradGradGradGradGradGradGradGradGradGradGradGradGradGrad
 Berny optimization.
 Initialization pass.
                           ----------------------------
                           !    Initial Parameters    !
                           ! (Angstroms and Degrees)  !
 --------------------------                            --------------------------
 ! Name  Definition              Value          Derivative Info.                !
 --------------------------------------------------------------------------------
 ! R1    R(1,2)                  1.476          calculate D2E/DX2 analytically  !
 ! R2    R(1,7)                  1.4138         calculate D2E/DX2 analytically  !
 ! R3    R(1,11)                 1.765          calculate D2E/DX2 analytically  !
 ! R4    R(1,13)                 1.097          calculate D2E/DX2 analytically  !
 ! R5    R(2,3)                  1.5287         calculate D2E/DX2 analytically  !
 ! R6    R(2,8)                  1.4184         calculate D2E/DX2 analytically  !
 ! R7    R(2,17)                 1.0949         calculate D2E/DX2 analytically  !
 ! R8    R(3,4)                  1.5227         calculate D2E/DX2 analytically  !
 ! R9    R(3,9)                  1.4184         calculate D2E/DX2 analytically  !
 ! R10   R(3,18)                 1.1017         calculate D2E/DX2 analytically  !
 ! R11   R(4,5)                  1.5314         calculate D2E/DX2 analytically  !
 ! R12   R(4,10)                 1.4166         calculate D2E/DX2 analytically  !
 ! R13   R(4,19)                 1.1003         calculate D2E/DX2 analytically  !
 ! R14   R(5,6)                  1.5258         calculate D2E/DX2 analytically  !
 ! R15   R(5,11)                 1.37           calculate D2E/DX2 analytically  !
 ! R16   R(5,20)                 1.0978         calculate D2E/DX2 analytically  !
 ! R17   R(5,23)                 1.6687         calculate D2E/DX2 analytically  !
 ! R18   R(6,12)                 1.4143         calculate D2E/DX2 analytically  !
 ! R19   R(6,21)                 1.1009         calculate D2E/DX2 analytically  !
 ! R20   R(6,22)                 1.0927         calculate D2E/DX2 analytically  !
 ! R21   R(7,23)                 1.4            calculate D2E/DX2 analytically  !
 ! R22   R(8,24)                 0.9664         calculate D2E/DX2 analytically  !
 ! R23   R(9,14)                 0.9649         calculate D2E/DX2 analytically  !
 ! R24   R(10,15)                0.9642         calculate D2E/DX2 analytically  !
 ! R25   R(11,23)                1.4602         calculate D2E/DX2 analytically  !
 ! R26   R(12,16)                0.9642         calculate D2E/DX2 analytically  !
 ! A1    A(2,1,7)              118.2112         calculate D2E/DX2 analytically  !
 ! A2    A(2,1,11)             105.3938         calculate D2E/DX2 analytically  !
 ! A3    A(2,1,13)             113.5852         calculate D2E/DX2 analytically  !
 ! A4    A(7,1,11)              90.0            calculate D2E/DX2 analytically  !
 ! A5    A(7,1,13)             119.3397         calculate D2E/DX2 analytically  !
 ! A6    A(11,1,13)            104.8896         calculate D2E/DX2 analytically  !
 ! A7    A(1,2,3)              113.7784         calculate D2E/DX2 analytically  !
 ! A8    A(1,2,8)              105.4561         calculate D2E/DX2 analytically  !
 ! A9    A(1,2,17)             110.9625         calculate D2E/DX2 analytically  !
 ! A10   A(3,2,8)              111.1552         calculate D2E/DX2 analytically  !
 ! A11   A(3,2,17)             108.7792         calculate D2E/DX2 analytically  !
 ! A12   A(8,2,17)             106.4475         calculate D2E/DX2 analytically  !
 ! A13   A(2,3,4)              110.4268         calculate D2E/DX2 analytically  !
 ! A14   A(2,3,9)              111.2583         calculate D2E/DX2 analytically  !
 ! A15   A(2,3,18)             108.7916         calculate D2E/DX2 analytically  !
 ! A16   A(4,3,9)              107.8619         calculate D2E/DX2 analytically  !
 ! A17   A(4,3,18)             108.1671         calculate D2E/DX2 analytically  !
 ! A18   A(9,3,18)             110.2866         calculate D2E/DX2 analytically  !
 ! A19   A(3,4,5)              109.686          calculate D2E/DX2 analytically  !
 ! A20   A(3,4,10)             111.2211         calculate D2E/DX2 analytically  !
 ! A21   A(3,4,19)             109.0213         calculate D2E/DX2 analytically  !
 ! A22   A(5,4,10)             107.5251         calculate D2E/DX2 analytically  !
 ! A23   A(5,4,19)             108.5005         calculate D2E/DX2 analytically  !
 ! A24   A(10,4,19)            110.835          calculate D2E/DX2 analytically  !
 ! A25   A(4,5,6)              112.8354         calculate D2E/DX2 analytically  !
 ! A26   A(4,5,11)             114.1638         calculate D2E/DX2 analytically  !
 ! A27   A(4,5,20)             108.7507         calculate D2E/DX2 analytically  !
 ! A28   A(4,5,23)             131.3387         calculate D2E/DX2 analytically  !
 ! A29   A(6,5,11)              98.435          calculate D2E/DX2 analytically  !
 ! A30   A(6,5,20)             109.5518         calculate D2E/DX2 analytically  !
 ! A31   A(6,5,23)             115.7624         calculate D2E/DX2 analytically  !
 ! A32   A(11,5,20)            112.7991         calculate D2E/DX2 analytically  !
 ! A33   A(20,5,23)             56.3865         calculate D2E/DX2 analytically  !
 ! A34   A(5,6,12)             111.9329         calculate D2E/DX2 analytically  !
 ! A35   A(5,6,21)             108.7829         calculate D2E/DX2 analytically  !
 ! A36   A(5,6,22)             108.7803         calculate D2E/DX2 analytically  !
 ! A37   A(12,6,21)            111.3879         calculate D2E/DX2 analytically  !
 ! A38   A(12,6,22)            107.3303         calculate D2E/DX2 analytically  !
 ! A39   A(21,6,22)            108.5331         calculate D2E/DX2 analytically  !
 ! A40   A(1,7,23)              90.0            calculate D2E/DX2 analytically  !
 ! A41   A(2,8,24)             105.9175         calculate D2E/DX2 analytically  !
 ! A42   A(3,9,14)             106.4953         calculate D2E/DX2 analytically  !
 ! A43   A(4,10,15)            106.3335         calculate D2E/DX2 analytically  !
 ! A44   A(1,11,5)             109.7892         calculate D2E/DX2 analytically  !
 ! A45   A(1,11,23)             75.5242         calculate D2E/DX2 analytically  !
 ! A46   A(6,12,16)            106.0121         calculate D2E/DX2 analytically  !
 ! A47   A(5,23,7)             119.7809         calculate D2E/DX2 analytically  !
 ! A48   A(7,23,11)            104.4758         calculate D2E/DX2 analytically  !
 ! D1    D(7,1,2,3)            -43.8974         calculate D2E/DX2 analytically  !
 ! D2    D(7,1,2,8)             78.1755         calculate D2E/DX2 analytically  !
 ! D3    D(7,1,2,17)          -166.9575         calculate D2E/DX2 analytically  !
 ! D4    D(11,1,2,3)            54.5963         calculate D2E/DX2 analytically  !
 ! D5    D(11,1,2,8)           176.6692         calculate D2E/DX2 analytically  !
 ! D6    D(11,1,2,17)          -68.4639         calculate D2E/DX2 analytically  !
 ! D7    D(13,1,2,3)           168.8649         calculate D2E/DX2 analytically  !
 ! D8    D(13,1,2,8)           -69.0622         calculate D2E/DX2 analytically  !
 ! D9    D(13,1,2,17)           45.8048         calculate D2E/DX2 analytically  !
 ! D10   D(2,1,7,23)           107.5319         calculate D2E/DX2 analytically  !
 ! D11   D(11,1,7,23)            0.0            calculate D2E/DX2 analytically  !
 ! D12   D(13,1,7,23)         -107.1435         calculate D2E/DX2 analytically  !
 ! D13   D(2,1,11,5)           -54.7518         calculate D2E/DX2 analytically  !
 ! D14   D(2,1,11,23)         -119.3612         calculate D2E/DX2 analytically  !
 ! D15   D(7,1,11,5)            64.6095         calculate D2E/DX2 analytically  !
 ! D16   D(7,1,11,23)            0.0            calculate D2E/DX2 analytically  !
 ! D17   D(13,1,11,5)         -174.9257         calculate D2E/DX2 analytically  !
 ! D18   D(13,1,11,23)         120.4649         calculate D2E/DX2 analytically  !
 ! D19   D(1,2,3,4)            -60.0593         calculate D2E/DX2 analytically  !
 ! D20   D(1,2,3,9)           -179.8012         calculate D2E/DX2 analytically  !
 ! D21   D(1,2,3,18)            58.5065         calculate D2E/DX2 analytically  !
 ! D22   D(8,2,3,4)           -178.9257         calculate D2E/DX2 analytically  !
 ! D23   D(8,2,3,9)             61.3323         calculate D2E/DX2 analytically  !
 ! D24   D(8,2,3,18)           -60.3599         calculate D2E/DX2 analytically  !
 ! D25   D(17,2,3,4)            64.1862         calculate D2E/DX2 analytically  !
 ! D26   D(17,2,3,9)           -55.5557         calculate D2E/DX2 analytically  !
 ! D27   D(17,2,3,18)         -177.248          calculate D2E/DX2 analytically  !
 ! D28   D(1,2,8,24)           -44.4352         calculate D2E/DX2 analytically  !
 ! D29   D(3,2,8,24)            79.314          calculate D2E/DX2 analytically  !
 ! D30   D(17,2,8,24)         -162.3816         calculate D2E/DX2 analytically  !
 ! D31   D(2,3,4,5)             56.0048         calculate D2E/DX2 analytically  !
 ! D32   D(2,3,4,10)           174.8212         calculate D2E/DX2 analytically  !
 ! D33   D(2,3,4,19)           -62.6685         calculate D2E/DX2 analytically  !
 ! D34   D(9,3,4,5)            177.775          calculate D2E/DX2 analytically  !
 ! D35   D(9,3,4,10)           -63.4087         calculate D2E/DX2 analytically  !
 ! D36   D(9,3,4,19)            59.1017         calculate D2E/DX2 analytically  !
 ! D37   D(18,3,4,5)           -62.9413         calculate D2E/DX2 analytically  !
 ! D38   D(18,3,4,10)           55.875          calculate D2E/DX2 analytically  !
 ! D39   D(18,3,4,19)          178.3854         calculate D2E/DX2 analytically  !
 ! D40   D(2,3,9,14)           -49.5601         calculate D2E/DX2 analytically  !
 ! D41   D(4,3,9,14)          -170.814          calculate D2E/DX2 analytically  !
 ! D42   D(18,3,9,14)           71.2579         calculate D2E/DX2 analytically  !
 ! D43   D(3,4,5,6)           -172.0462         calculate D2E/DX2 analytically  !
 ! D44   D(3,4,5,11)           -60.7388         calculate D2E/DX2 analytically  !
 ! D45   D(3,4,5,20)            66.1902         calculate D2E/DX2 analytically  !
 ! D46   D(3,4,5,23)             4.8756         calculate D2E/DX2 analytically  !
 ! D47   D(10,4,5,6)            66.8808         calculate D2E/DX2 analytically  !
 ! D48   D(10,4,5,11)          178.1883         calculate D2E/DX2 analytically  !
 ! D49   D(10,4,5,20)          -54.8828         calculate D2E/DX2 analytically  !
 ! D50   D(10,4,5,23)         -116.1973         calculate D2E/DX2 analytically  !
 ! D51   D(19,4,5,6)           -53.0516         calculate D2E/DX2 analytically  !
 ! D52   D(19,4,5,11)           58.2558         calculate D2E/DX2 analytically  !
 ! D53   D(19,4,5,20)         -174.8152         calculate D2E/DX2 analytically  !
 ! D54   D(19,4,5,23)          123.8702         calculate D2E/DX2 analytically  !
 ! D55   D(3,4,10,15)           50.54           calculate D2E/DX2 analytically  !
 ! D56   D(5,4,10,15)          170.6443         calculate D2E/DX2 analytically  !
 ! D57   D(19,4,10,15)         -70.9173         calculate D2E/DX2 analytically  !
 ! D58   D(4,5,6,12)            63.3048         calculate D2E/DX2 analytically  !
 ! D59   D(4,5,6,21)          -173.1776         calculate D2E/DX2 analytically  !
 ! D60   D(4,5,6,22)           -55.1265         calculate D2E/DX2 analytically  !
 ! D61   D(11,5,6,12)          -57.4563         calculate D2E/DX2 analytically  !
 ! D62   D(11,5,6,21)           66.0613         calculate D2E/DX2 analytically  !
 ! D63   D(11,5,6,22)         -175.8875         calculate D2E/DX2 analytically  !
 ! D64   D(20,5,6,12)         -175.3849         calculate D2E/DX2 analytically  !
 ! D65   D(20,5,6,21)          -51.8673         calculate D2E/DX2 analytically  !
 ! D66   D(20,5,6,22)           66.1838         calculate D2E/DX2 analytically  !
 ! D67   D(23,5,6,12)         -114.1294         calculate D2E/DX2 analytically  !
 ! D68   D(23,5,6,21)            9.3882         calculate D2E/DX2 analytically  !
 ! D69   D(23,5,6,22)          127.4394         calculate D2E/DX2 analytically  !
 ! D70   D(4,5,11,1)            58.0737         calculate D2E/DX2 analytically  !
 ! D71   D(6,5,11,1)           177.845          calculate D2E/DX2 analytically  !
 ! D72   D(20,5,11,1)          -66.7304         calculate D2E/DX2 analytically  !
 ! D73   D(4,5,23,7)            -9.0908         calculate D2E/DX2 analytically  !
 ! D74   D(6,5,23,7)           167.7592         calculate D2E/DX2 analytically  !
 ! D75   D(20,5,23,7)          -95.0373         calculate D2E/DX2 analytically  !
 ! D76   D(5,6,12,16)           53.2372         calculate D2E/DX2 analytically  !
 ! D77   D(21,6,12,16)         -68.8009         calculate D2E/DX2 analytically  !
 ! D78   D(22,6,12,16)         172.5261         calculate D2E/DX2 analytically  !
 ! D79   D(1,7,23,5)           -53.5213         calculate D2E/DX2 analytically  !
 ! D80   D(1,7,23,11)            0.0            calculate D2E/DX2 analytically  !
 ! D81   D(1,11,23,7)            0.0            calculate D2E/DX2 analytically  !
 --------------------------------------------------------------------------------
 Trust Radius=3.00D-01 FncErr=1.00D-07 GrdErr=1.00D-06
 Number of steps in this run=    144 maximum allowed number of steps=    144.
 Search for a saddle point of order  1.
 GradGradGradGradGradGradGradGradGradGradGradGradGradGradGradGradGradGrad

                          Input orientation:                          
 ---------------------------------------------------------------------
 Center     Atomic      Atomic             Coordinates (Angstroms)
 Number     Number       Type             X           Y           Z
 ---------------------------------------------------------------------
      1          6           0        1.490748    0.691349    0.431383
      2          6           0        0.938505   -0.121035    1.532997
      3          6           0        1.636574    0.103496    2.874366
      4          6           0        3.114424   -0.248124    2.769793
      5          6           0        3.759259    0.563403    1.642559
      6          6           0        5.191692    0.129925    1.345495
      7          8           0        1.777407    2.052651    0.683510
      8          8           0       -0.434969    0.225392    1.606398
      9          8           0        1.067967   -0.704912    3.891687
     10          8           0        3.802022    0.064997    3.968042
     11          8           0        3.218655    0.332358    0.405112
     12          8           0        5.254170   -1.204204    0.880179
     13          1           0        1.125870    0.393437   -0.559284
     14          1           0        0.113044   -0.575477    3.842784
     15          1           0        3.294194   -0.333600    4.684158
     16          1           0        4.642190   -1.255556    0.136804
     17          1           0        0.976558   -1.187953    1.290088
     18          1           0        1.555130    1.168885    3.142878
     19          1           0        3.212522   -1.317538    2.530309
     20          1           0        3.746953    1.625357    1.920636
     21          1           0        5.630161    0.829932    0.617654
     22          1           0        5.773159    0.180015    2.269322
     23          1           0        3.147984    1.767899    0.662671
     24          1           0       -0.469401    1.188724    1.537215
 ---------------------------------------------------------------------
                    Distance matrix (angstroms):
                    1          2          3          4          5
     1  C    0.000000
     2  C    1.475972   0.000000
     3  C    2.516943   1.528720   0.000000
     4  C    2.997848   2.506080   1.522699   0.000000
     5  C    2.574773   2.904671   2.496929   1.531354   0.000000
     6  C    3.853282   4.264708   3.870014   2.546878   1.525783
     7  O    1.413818   2.479979   2.935794   3.381384   2.658077
     8  O    2.303511   1.418390   2.431849   3.765089   4.207981
     9  O    3.755262   2.433329   1.418372   2.378085   3.729645
    10  O    4.271095   3.763480   2.426268   1.416558   2.378678
    11  O    1.765000   2.583945   2.941526   2.437117   1.370004
    12  O    4.237674   4.497154   4.332881   3.010522   2.437297
    13  H    1.096954   2.162736   3.483509   3.930483   3.436820
    14  H    3.891089   2.494598   1.928725   3.204177   4.408279
    15  H    4.731705   3.940085   2.492810   1.924686   3.205031
    16  H    3.716019   4.117496   4.286607   3.206496   2.521007
    17  H    2.129211   1.094882   2.147882   2.764648   3.306797
    18  H    2.753977   2.153099   1.101719   2.139744   2.734182
    19  H    3.377221   2.756339   2.149727   1.100283   2.150572
    20  H    2.860193   3.329794   2.771166   2.151997   1.097827
    21  H    4.145918   4.873790   4.644265   3.481787   2.149824
    22  H    4.688126   4.899662   4.181300   2.739096   2.143738
    23  H    1.989694   3.034359   3.153758   2.916408   1.668726
    24  H    2.304871   1.922937   2.720445   4.053095   4.275943
                    6          7          8          9         10
     6  C    0.000000
     7  O    3.973971   0.000000
     8  O    5.633516   3.014167   0.000000
     9  O    4.917840   4.289506   2.889088   0.000000
    10  O    2.968695   4.340275   4.853368   2.841416   0.000000
    11  O    2.195034   2.261439   3.847531   4.225825   3.620259
    12  O    1.414328   4.767983   5.910790   5.181001   3.640673
    13  H    4.497613   2.173022   2.674815   4.584851   5.269377
    14  H    5.703219   4.433754   2.437854   0.964895   3.746259
    15  H    3.868078   4.898982   4.867416   2.392064   0.964153
    16  H    1.918970   4.410227   5.489122   5.213197   4.138614
    17  H    4.416699   3.392758   2.022376   2.647641   4.089568
    18  H    4.187434   2.622774   2.685413   2.075851   2.635904
    19  H    2.723242   4.102243   4.066747   2.613001   2.079901
    20  H    2.157400   2.364778   4.421212   4.061054   2.574806
    21  H    1.100917   4.042659   6.174859   5.821396   3.892598
    22  H    1.092735   4.689094   6.243587   5.055096   2.604661
    23  H    2.706649   1.400000   4.013415   4.568130   3.775330
    24  H    5.762446   2.554080   0.966427   3.390117   5.041501
                   11         12         13         14         15
    11  O    0.000000
    12  O    2.594231   0.000000
    13  H    2.305111   4.654822   0.000000
    14  H    4.720866   5.966867   4.619828   0.000000
    15  H    4.331217   4.366888   5.720480   3.299414   0.000000
    16  H    2.149398   0.964242   3.945658   5.891516   4.831721
    17  H    2.849829   4.297238   2.437881   2.763520   4.197745
    18  H    3.310960   4.943102   3.806781   2.369025   2.767192
    19  H    2.690476   2.627565   4.102089   3.446739   2.369361
    20  H    2.061009   3.370559   3.812834   4.663005   3.417537
    21  H    2.471460   2.085185   4.675932   6.543334   4.831874
    22  H    3.166067   2.028578   5.444617   5.923129   3.498643
    23  H    1.460174   3.649209   2.733361   4.981505   4.539827
    24  H    3.951807   6.238354   2.751850   2.960962   5.136669
                   16         17         18         19         20
    16  H    0.000000
    17  H    3.843370   0.000000
    18  H    4.944121   3.053238   0.000000
    19  H    2.788666   2.560171   3.050326   0.000000
    20  H    3.504735   3.998424   2.550751   3.052532   0.000000
    21  H    2.357236   5.116644   4.805988   3.756974   2.424239
    22  H    2.808485   5.083072   4.419585   2.977858   2.513186
    23  H    3.413278   3.720995   3.007894   3.607237   1.400557
    24  H    5.836439   2.792931   2.584042   4.563348   4.256207
                   21         22         23         24
    21  H    0.000000
    22  H    1.780687   0.000000
    23  H    2.653867   3.463271   0.000000
    24  H    6.178914   6.365770   3.766397   0.000000
 Symmetry turned off by external request.
 Stoichiometry    C6H12O6
 Framework group  C1[X(C6H12O6)]
 Deg. of freedom    66
 Full point group                 C1      NOp   1
 Rotational constants (GHZ):      1.2737738      0.7846422      0.5825654
 Standard basis: 6-31G(2df,p) (6D, 7F)
 Integral buffers will be    131072 words long.
 Raffenetti 2 integral format.
 Two-electron integral symmetry is turned off.
   396 basis functions,   612 primitive gaussians,   432 cartesian basis functions
    48 alpha electrons       48 beta electrons
       nuclear repulsion energy       839.6512579306 Hartrees.
 NAtoms=   24 NActive=   24 NUniq=   24 SFac= 1.00D+00 NAtFMM=   50 NAOKFM=F Big=F
 One-electron integrals computed using PRISM.
 NBasis=   396 RedAO= T  NBF=   396
 NBsUse=   396 1.00D-06 NBFU=   396
 Harris functional with IExCor=  402 diagonalized for initial guess.
 ExpMin= 1.61D-01 ExpMax= 5.48D+03 ExpMxC= 8.25D+02 IAcc=1 IRadAn=         1 AccDes= 0.00D+00
 HarFok:  IExCor=  402 AccDes= 0.00D+00 IRadAn=         1 IDoV= 1
 ScaDFX=  1.000000  1.000000  1.000000  1.000000
 FoFCou: FMM=F IPFlag=           0 FMFlag=      100000 FMFlg1=           0
         NFxFlg=           0 DoJE=T BraDBF=F KetDBF=T FulRan=T
         Omega=  0.000000  0.000000  1.000000  0.000000  0.000000 ICntrl=     500 IOpCl=  0
         NMat0=    1 NMatS0=    1 NMatT0=    0 NMatD0=    1 NMtDS0=    0 NMtDT0=    0
         I1Cent=           4 NGrid=           0.
 Symmetry not used in FoFCou.
 Requested convergence on RMS density matrix=1.00D-08 within 128 cycles.
 Requested convergence on MAX density matrix=1.00D-06.
 Requested convergence on             energy=1.00D-06.
 No special actions if energy rises.
 Integral accuracy reduced to 1.0D-05 until final iterations.
 Initial convergence to 1.0D-05 achieved.  Increase integral accuracy.
 SCF Done:  E(RB3LYP) =  -687.086599161     A.U. after   14 cycles
             Convg  =    0.6678D-08             -V/T =  2.0063
 Range of M.O.s used for correlation:     1   396
 NBasis=   396 NAE=    48 NBE=    48 NFC=     0 NFV=     0
 NROrb=    396 NOA=    48 NOB=    48 NVA=   348 NVB=   348

 **** Warning!!: The largest alpha MO coefficient is  0.18231408D+02

 Symmetrizing basis deriv contribution to polar:
 IMax=3 JMax=2 DiffMx= 0.00D+00
 G2DrvN: will do    25 centers at a time, making    1 passes doing MaxLOS=3.
 Calling FoFCou, ICntrl=  3107 FMM=F I1Cent=   0 AccDes= 0.00D+00.
 FoFDir/FoFCou used for L=0 through L=3.
 End of G2Drv Frequency-dependent properties file   721 does not exist.
 End of G2Drv Frequency-dependent properties file   722 does not exist.
          IDoAtm=111111111111111111111111
          Differentiating once with respect to nuclear coordinates.
          There are    75 degrees of freedom in the 1st order CPHF.  IDoFFX=5.
     69 vectors produced by pass  0 Test12= 2.23D-10 1.33D-07 XBig12= 1.46D-01 1.28D-01.
 AX will form    69 AO Fock derivatives at one time.
     69 vectors produced by pass  1 Test12= 2.23D-10 1.33D-07 XBig12= 4.24D-02 5.87D-02.
     69 vectors produced by pass  2 Test12= 2.23D-10 1.33D-07 XBig12= 5.08D-04 2.79D-03.
     69 vectors produced by pass  3 Test12= 2.23D-10 1.33D-07 XBig12= 2.19D-06 1.55D-04.
     49 vectors produced by pass  4 Test12= 2.23D-10 1.33D-07 XBig12= 4.59D-09 5.13D-06.
      3 vectors produced by pass  5 Test12= 2.23D-10 1.33D-07 XBig12= 6.64D-12 2.73D-07.
 Inverted reduced A of dimension   328 with in-core refinement.
 End of Minotr Frequency-dependent properties file   721 does not exist.
 End of Minotr Frequency-dependent properties file   722 does not exist.

 **********************************************************************

            Population analysis using the SCF density.

 **********************************************************************

 Alpha  occ. eigenvalues --  -19.17769 -19.16962 -19.15327 -19.14539 -19.13665
 Alpha  occ. eigenvalues --  -19.13528 -10.31064 -10.25423 -10.25347 -10.24160
 Alpha  occ. eigenvalues --  -10.24128 -10.23162  -1.07992  -1.05888  -1.04020
 Alpha  occ. eigenvalues --   -1.01941  -1.01585  -0.96453  -0.79500  -0.76577
 Alpha  occ. eigenvalues --   -0.70292  -0.65026  -0.62417  -0.59270  -0.55426
 Alpha  occ. eigenvalues --   -0.54989  -0.52944  -0.50154  -0.49437  -0.48296
 Alpha  occ. eigenvalues --   -0.46842  -0.46026  -0.44230  -0.41744  -0.41603
 Alpha  occ. eigenvalues --   -0.41046  -0.38180  -0.37275  -0.37018  -0.36324
 Alpha  occ. eigenvalues --   -0.33250  -0.31715  -0.31041  -0.29046  -0.27956
 Alpha  occ. eigenvalues --   -0.27571  -0.27057  -0.26016
 Alpha virt. eigenvalues --   -0.03195   0.02614   0.06746   0.08844   0.09109
 Alpha virt. eigenvalues --    0.11262   0.11642   0.12346   0.13268   0.13826
 Alpha virt. eigenvalues --    0.15939   0.16654   0.17030   0.18247   0.19130
 Alpha virt. eigenvalues --    0.19516   0.21275   0.22767   0.24497   0.25292
 Alpha virt. eigenvalues --    0.27599   0.29917   0.30631   0.32294   0.42674
 Alpha virt. eigenvalues --    0.43346   0.44817   0.45876   0.47245   0.47989
 Alpha virt. eigenvalues --    0.49132   0.49894   0.51132   0.53643   0.54199
 Alpha virt. eigenvalues --    0.56590   0.58079   0.60172   0.61616   0.62056
 Alpha virt. eigenvalues --    0.62649   0.63932   0.65158   0.66705   0.67832
 Alpha virt. eigenvalues --    0.68565   0.70580   0.72177   0.72406   0.73565
 Alpha virt. eigenvalues --    0.74913   0.75987   0.77290   0.78162   0.79001
 Alpha virt. eigenvalues --    0.79725   0.81647   0.82337   0.83989   0.85646
 Alpha virt. eigenvalues --    0.86768   0.87636   0.88948   0.89192   0.90400
 Alpha virt. eigenvalues --    0.90963   0.91268   0.93253   0.93679   0.95123
 Alpha virt. eigenvalues --    0.96352   0.96853   0.97747   0.98256   0.99549
 Alpha virt. eigenvalues --    1.00540   1.01846   1.03473   1.04961   1.06677
 Alpha virt. eigenvalues --    1.08693   1.10459   1.11597   1.12786   1.14780
 Alpha virt. eigenvalues --    1.16057   1.18403   1.19029   1.19753   1.23433
 Alpha virt. eigenvalues --    1.25707   1.27229   1.29396   1.30094   1.32098
 Alpha virt. eigenvalues --    1.33634   1.35588   1.37812   1.38821   1.40558
 Alpha virt. eigenvalues --    1.41873   1.42417   1.43687   1.44444   1.47328
 Alpha virt. eigenvalues --    1.48010   1.50570   1.51251   1.52825   1.54880
 Alpha virt. eigenvalues --    1.55235   1.56096   1.59242   1.60884   1.62568
 Alpha virt. eigenvalues --    1.63377   1.65565   1.67047   1.69316   1.71589
 Alpha virt. eigenvalues --    1.71835   1.72916   1.74986   1.76975   1.79159
 Alpha virt. eigenvalues --    1.79675   1.81782   1.86663   1.89721   1.90691
 Alpha virt. eigenvalues --    1.91264   1.93773   1.95106   1.96380   1.99223
 Alpha virt. eigenvalues --    2.02405   2.06966   2.08268   2.11912   2.16008
 Alpha virt. eigenvalues --    2.17731   2.20377   2.22010   2.24123   2.33867
 Alpha virt. eigenvalues --    2.37821   2.40916   2.41273   2.46598   2.49115
 Alpha virt. eigenvalues --    2.52123   2.52734   2.53378   2.55028   2.56375
 Alpha virt. eigenvalues --    2.57529   2.59205   2.60138   2.64277   2.67434
 Alpha virt. eigenvalues --    2.68611   2.72041   2.74313   2.75966   2.77217
 Alpha virt. eigenvalues --    2.79592   2.80568   2.82254   2.85554   2.86989
 Alpha virt. eigenvalues --    2.88059   2.88346   2.90949   2.91926   2.92805
 Alpha virt. eigenvalues --    2.95094   2.95962   2.96992   2.99561   2.99671
 Alpha virt. eigenvalues --    3.04258   3.05448   3.08545   3.11306   3.14265
 Alpha virt. eigenvalues --    3.16000   3.17341   3.21235   3.22219   3.23700
 Alpha virt. eigenvalues --    3.28029   3.29242   3.32519   3.36536   3.37510
 Alpha virt. eigenvalues --    3.38701   3.39944   3.43078   3.43698   3.46855
 Alpha virt. eigenvalues --    3.52192   3.55699   3.56546   3.56564   3.61027
 Alpha virt. eigenvalues --    3.64973   3.66145   3.68892   3.72262   3.74508
 Alpha virt. eigenvalues --    3.76198   3.80129   3.81748   3.87884   3.92162
 Alpha virt. eigenvalues --    3.94104   4.00895   4.04337   4.06374   4.12031
 Alpha virt. eigenvalues --    4.14184   4.18751   4.19106   4.20977   4.22171
 Alpha virt. eigenvalues --    4.24480   4.28278   4.29029   4.30205   4.30494
 Alpha virt. eigenvalues --    4.31959   4.33073   4.34938   4.36205   4.37049
 Alpha virt. eigenvalues --    4.38781   4.40697   4.41284   4.42709   4.46167
 Alpha virt. eigenvalues --    4.47596   4.47865   4.48858   4.49683   4.51002
 Alpha virt. eigenvalues --    4.52590   4.55021   4.56506   4.57815   4.58603
 Alpha virt. eigenvalues --    4.60174   4.61602   4.62797   4.64317   4.64812
 Alpha virt. eigenvalues --    4.67599   4.67815   4.69189   4.71923   4.72430
 Alpha virt. eigenvalues --    4.74770   4.76029   4.78474   4.79036   4.79333
 Alpha virt. eigenvalues --    4.81689   4.83517   4.84337   4.86569   4.90144
 Alpha virt. eigenvalues --    4.91040   4.93277   4.93981   4.96665   4.96981
 Alpha virt. eigenvalues --    5.00314   5.01474   5.09151   5.10613   5.12273
 Alpha virt. eigenvalues --    5.17070   5.20380   5.22645   5.25661   5.27191
 Alpha virt. eigenvalues --    5.27412   5.30493   5.31443   5.34328   5.36070
 Alpha virt. eigenvalues --    5.39428   5.40560   5.41048   5.43386   5.44220
 Alpha virt. eigenvalues --    5.45841   5.48001   5.48411   5.49095   5.51898
 Alpha virt. eigenvalues --    5.52871   5.55408   5.59465   5.59866   5.62583
 Alpha virt. eigenvalues --    5.66596   5.66981   5.69039   5.72268   5.75358
 Alpha virt. eigenvalues --    5.87223   5.91962   5.94789   5.95704   5.97026
 Alpha virt. eigenvalues --    5.98960   5.99677   6.00137   6.03306   6.05276
 Alpha virt. eigenvalues --    6.08117   6.08530   6.10772   6.11901   6.14106
 Alpha virt. eigenvalues --    6.14683   6.19317   6.26845   6.64379   6.90163
 Alpha virt. eigenvalues --    7.03567   7.06409   7.09454   7.14149   7.26799
 Alpha virt. eigenvalues --    7.37636  11.08497  11.39011  11.81542  12.31307
 Alpha virt. eigenvalues --   12.52200  12.90581  13.16251  13.22718  13.32989
 Alpha virt. eigenvalues --   13.35881  13.45701  13.75263
          Condensed to atoms (all electrons):
              1          2          3          4          5          6
     1  C    4.751976   0.271600  -0.006397  -0.004565  -0.033873   0.004078
     2  C    0.271600   4.962971   0.282989  -0.006585  -0.034385  -0.000713
     3  C   -0.006397   0.282989   4.948978   0.307318  -0.009939   0.003834
     4  C   -0.004565  -0.006585   0.307318   4.882575   0.270889  -0.011141
     5  C   -0.033873  -0.034385  -0.009939   0.270889   5.066017   0.325605
     6  C    0.004078  -0.000713   0.003834  -0.011141   0.325605   4.823733
     7  O    0.360478  -0.040638  -0.003767  -0.005167  -0.005855   0.000434
     8  O   -0.023815   0.338417  -0.035843   0.002375  -0.000182   0.000000
     9  O    0.002991  -0.025907   0.327501  -0.017316   0.001426  -0.000004
    10  O   -0.000030   0.002974  -0.017389   0.311722  -0.022122  -0.004037
    11  O    0.210256  -0.003922  -0.003069  -0.032390   0.259028  -0.031510
    12  O   -0.000119   0.000012   0.000235   0.000826  -0.046125   0.374912
    13  H    0.363430  -0.073729   0.005768  -0.000675   0.003986  -0.000001
    14  H    0.000430  -0.006450  -0.067960   0.007810  -0.000346   0.000002
    15  H   -0.000064   0.000349  -0.003609  -0.064096   0.006536   0.000235
    16  H   -0.000606   0.000133  -0.000162  -0.001051  -0.006125  -0.068404
    17  H   -0.027559   0.334887  -0.045291  -0.005543   0.001689   0.000011
    18  H   -0.001595  -0.041933   0.319314  -0.033169   0.000223   0.000058
    19  H   -0.000541  -0.000010  -0.049141   0.335029  -0.041815  -0.013914
    20  H   -0.007401   0.001040  -0.009359  -0.047808   0.344590  -0.042144
    21  H   -0.000133  -0.000023  -0.000077   0.006261  -0.034206   0.352063
    22  H   -0.000158  -0.000001   0.000320  -0.008063  -0.022727   0.353453
    23  H   -0.048722   0.010616  -0.000625   0.005410  -0.024672  -0.004241
    24  H   -0.002365  -0.081377   0.002430  -0.000026   0.000087   0.000000
              7          8          9         10         11         12
     1  C    0.360478  -0.023815   0.002991  -0.000030   0.210256  -0.000119
     2  C   -0.040638   0.338417  -0.025907   0.002974  -0.003922   0.000012
     3  C   -0.003767  -0.035843   0.327501  -0.017389  -0.003069   0.000235
     4  C   -0.005167   0.002375  -0.017316   0.311722  -0.032390   0.000826
     5  C   -0.005855  -0.000182   0.001426  -0.022122   0.259028  -0.046125
     6  C    0.000434   0.000000  -0.000004  -0.004037  -0.031510   0.374912
     7  O    8.127039  -0.004088   0.000071   0.000054  -0.111470  -0.000013
     8  O   -0.004088   7.864138  -0.004485  -0.000013   0.000735   0.000000
     9  O    0.000071  -0.004485   7.888514  -0.004834   0.000003   0.000000
    10  O    0.000054  -0.000013  -0.004834   7.881222   0.000456  -0.000103
    11  O   -0.111470   0.000735   0.000003   0.000456   8.140095  -0.016614
    12  O   -0.000013   0.000000   0.000000  -0.000103  -0.016614   7.826905
    13  H   -0.028486   0.002807  -0.000041   0.000003  -0.011635  -0.000006
    14  H    0.000008   0.017771   0.313052  -0.000027  -0.000005   0.000000
    15  H    0.000000  -0.000005   0.013609   0.315401  -0.000108  -0.000025
    16  H    0.000090   0.000000   0.000000   0.000002   0.027459   0.307679
    17  H    0.002779  -0.020358   0.002023  -0.000064  -0.000692   0.000002
    18  H    0.012457  -0.002424  -0.032479   0.001121   0.000161  -0.000004
    19  H   -0.000074   0.000000  -0.000223  -0.027491   0.002094   0.015484
    20  H    0.010395   0.000033  -0.000043   0.006812  -0.059423   0.002167
    21  H   -0.000055   0.000000   0.000000   0.000043  -0.004870  -0.030292
    22  H    0.000010   0.000000   0.000000   0.008296   0.003121  -0.018733
    23  H    0.194574  -0.000089   0.000000  -0.000060   0.045451  -0.000054
    24  H    0.010724   0.315415   0.000147  -0.000001   0.000194   0.000000
             13         14         15         16         17         18
     1  C    0.363430   0.000430  -0.000064  -0.000606  -0.027559  -0.001595
     2  C   -0.073729  -0.006450   0.000349   0.000133   0.334887  -0.041933
     3  C    0.005768  -0.067960  -0.003609  -0.000162  -0.045291   0.319314
     4  C   -0.000675   0.007810  -0.064096  -0.001051  -0.005543  -0.033169
     5  C    0.003986  -0.000346   0.006536  -0.006125   0.001689   0.000223
     6  C   -0.000001   0.000002   0.000235  -0.068404   0.000011   0.000058
     7  O   -0.028486   0.000008   0.000000   0.000090   0.002779   0.012457
     8  O    0.002807   0.017771  -0.000005   0.000000  -0.020358  -0.002424
     9  O   -0.000041   0.313052   0.013609   0.000000   0.002023  -0.032479
    10  O    0.000003  -0.000027   0.315401   0.000002  -0.000064   0.001121
    11  O   -0.011635  -0.000005  -0.000108   0.027459  -0.000692   0.000161
    12  O   -0.000006   0.000000  -0.000025   0.307679   0.000002  -0.000004
    13  H    0.611053  -0.000024   0.000000  -0.000002  -0.002516   0.000122
    14  H   -0.000024   0.442881  -0.000592   0.000000   0.000656  -0.001247
    15  H    0.000000  -0.000592   0.433633   0.000004   0.000010   0.000446
    16  H   -0.000002   0.000000   0.000004   0.447802   0.000088  -0.000001
    17  H   -0.002516   0.000656   0.000010   0.000088   0.629951   0.007345
    18  H    0.000122  -0.001247   0.000446  -0.000001   0.007345   0.668628
    19  H   -0.000113  -0.000231  -0.001592   0.000518   0.006112   0.007251
    20  H    0.000205  -0.000003  -0.000492   0.000824   0.000184   0.005145
    21  H    0.000004   0.000000   0.000007  -0.002565   0.000001   0.000001
    22  H    0.000001   0.000000  -0.000268   0.007100   0.000001  -0.000016
    23  H    0.000284  -0.000002   0.000016   0.000447  -0.000443  -0.001009
    24  H    0.001598  -0.000370   0.000000   0.000000   0.006966   0.004383
             19         20         21         22         23         24
     1  C   -0.000541  -0.007401  -0.000133  -0.000158  -0.048722  -0.002365
     2  C   -0.000010   0.001040  -0.000023  -0.000001   0.010616  -0.081377
     3  C   -0.049141  -0.009359  -0.000077   0.000320  -0.000625   0.002430
     4  C    0.335029  -0.047808   0.006261  -0.008063   0.005410  -0.000026
     5  C   -0.041815   0.344590  -0.034206  -0.022727  -0.024672   0.000087
     6  C   -0.013914  -0.042144   0.352063   0.353453  -0.004241   0.000000
     7  O   -0.000074   0.010395  -0.000055   0.000010   0.194574   0.010724
     8  O    0.000000   0.000033   0.000000   0.000000  -0.000089   0.315415
     9  O   -0.000223  -0.000043   0.000000   0.000000   0.000000   0.000147
    10  O   -0.027491   0.006812   0.000043   0.008296  -0.000060  -0.000001
    11  O    0.002094  -0.059423  -0.004870   0.003121   0.045451   0.000194
    12  O    0.015484   0.002167  -0.030292  -0.018733  -0.000054   0.000000
    13  H   -0.000113   0.000205   0.000004   0.000001   0.000284   0.001598
    14  H   -0.000231  -0.000003   0.000000   0.000000  -0.000002  -0.000370
    15  H   -0.001592  -0.000492   0.000007  -0.000268   0.000016   0.000000
    16  H    0.000518   0.000824  -0.002565   0.007100   0.000447   0.000000
    17  H    0.006112   0.000184   0.000001   0.000001  -0.000443   0.006966
    18  H    0.007251   0.005145   0.000001  -0.000016  -0.001009   0.004383
    19  H    0.665719   0.007455   0.000509  -0.000215   0.000087   0.000017
    20  H    0.007455   0.689880  -0.001072   0.002472  -0.007566   0.000016
    21  H    0.000509  -0.001072   0.667307  -0.042300   0.001034   0.000000
    22  H   -0.000215   0.002472  -0.042300   0.586590   0.000596   0.000000
    23  H    0.000087  -0.007566   0.001034   0.000596   0.441636  -0.000406
    24  H    0.000017   0.000016   0.000000   0.000000  -0.000406   0.443737
 Mulliken atomic charges:
              1
     1  C    0.192706
     2  C    0.109685
     3  C    0.053941
     4  C    0.107380
     5  C    0.002297
     6  C   -0.062309
     7  O   -0.519498
     8  O   -0.450388
     9  O   -0.464004
    10  O   -0.451934
    11  O   -0.413344
    12  O   -0.416133
    13  H    0.127967
    14  H    0.294647
    15  H    0.300605
    16  H    0.286771
    17  H    0.109759
    18  H    0.087221
    19  H    0.095084
    20  H    0.104093
    21  H    0.088365
    22  H    0.130522
    23  H    0.387737
    24  H    0.298830
 Sum of Mulliken atomic charges =   0.00000
 Mulliken charges with hydrogens summed into heavy atoms:
              1
     1  C    0.320673
     2  C    0.219444
     3  C    0.141162
     4  C    0.202465
     5  C    0.106390
     6  C    0.156577
     7  O   -0.131762
     8  O   -0.151558
     9  O   -0.169357
    10  O   -0.151329
    11  O   -0.413344
    12  O   -0.129362
 Sum of Mulliken charges with hydrogens summed into heavy atoms =   0.00000
 APT atomic charges:
              1
     1  C   -0.126538
     2  C   -0.199207
     3  C   -0.479874
     4  C   -0.406949
     5  C   -0.574147
     6  C   -1.150918
     7  O   -0.494011
     8  O   -0.666750
     9  O   -0.028314
    10  O   -0.317677
    11  O   -0.351135
    12  O    0.405098
    13  H    0.145882
    14  H    0.204126
    15  H    0.625108
    16  H   -0.263599
    17  H    0.258012
    18  H    0.354049
    19  H    0.260641
    20  H    0.402793
    21  H    0.487054
    22  H    0.833222
    23  H    0.623947
    24  H    0.459187
 Sum of APT charges=   0.00000
 APT Atomic charges with hydrogens summed into heavy atoms:
              1
     1  C    0.019344
     2  C    0.058805
     3  C   -0.125825
     4  C   -0.146308
     5  C   -0.171354
     6  C    0.169358
     7  O    0.129936
     8  O   -0.207562
     9  O    0.175811
    10  O    0.307432
    11  O   -0.351135
    12  O    0.141498
    13  H    0.000000
    14  H    0.000000
    15  H    0.000000
    16  H    0.000000
    17  H    0.000000
    18  H    0.000000
    19  H    0.000000
    20  H    0.000000
    21  H    0.000000
    22  H    0.000000
    23  H    0.000000
    24  H    0.000000
 Sum of APT charges=   0.00000
 Electronic spatial extent (au):  <R**2>=           5473.4847
 Charge=              0.0000 electrons
 Dipole moment (field-independent basis, Debye):
    X=             -1.6481    Y=              0.3725    Z=             -0.3928  Tot=              1.7347
 Quadrupole moment (field-independent basis, Debye-Ang):
   XX=            -81.8171   YY=            -74.2301   ZZ=            -69.6650
   XY=              4.6891   XZ=             -6.1528   YZ=              2.6577
 Traceless Quadrupole moment (field-independent basis, Debye-Ang):
   XX=             -6.5797   YY=              1.0073   ZZ=              5.5724
   XY=              4.6891   XZ=             -6.1528   YZ=              2.6577
 Octapole moment (field-independent basis, Debye-Ang**2):
  XXX=           -622.6771  YYY=            -44.7303  ZZZ=           -377.5652  XYY=           -193.7957
  XXY=             33.9680  XXZ=           -157.4329  XZZ=           -199.3546  YZZ=            -11.7544
  YYZ=           -132.2116  XYZ=              6.6112
 Hexadecapole moment (field-independent basis, Debye-Ang**3):
 XXXX=          -4648.8960 YYYY=           -385.0189 ZZZZ=          -2021.4419 XXXY=            248.1863
 XXXZ=          -1118.4118 YYYX=            -32.1859 YYYZ=             13.3320 ZZZX=           -995.2804
 ZZZY=            -11.5308 XXYY=           -782.6014 XXZZ=          -1111.4384 YYZZ=           -419.9732
 XXYZ=             46.1282 YYXZ=           -337.9191 ZZXY=            -30.2334
 N-N= 8.396512579306D+02 E-N=-3.292083849805D+03  KE= 6.827516230359D+02
  Exact polarizability:   0.000   0.000   0.000   0.000   0.000   0.000
 Approx polarizability: 153.928  -5.031 130.269   3.861   0.356 122.193
 Calling FoFJK, ICntrl=    100147 FMM=F ISym2X=0 I1Cent= 0 IOpClX= 0 NMat=1 NMatS=1 NMatT=0.
 -------------------------------------------------------------------
 Center     Atomic                   Forces (Hartrees/Bohr)
 Number     Number              X              Y              Z
 -------------------------------------------------------------------
      1        6           0.085419223    0.050047588    0.000900548
      2        6          -0.007305635   -0.005158205    0.013330266
      3        6           0.000822301    0.003313956    0.000425215
      4        6          -0.000658328    0.002483627    0.002399548
      5        6           0.034480831   -0.030233906    0.032874233
      6        6           0.020163113   -0.000875012    0.014043870
      7        8           0.020112377   -0.040249461   -0.009604250
      8        8          -0.010367800    0.000361012    0.002959160
      9        8          -0.000051140   -0.000652754   -0.002316907
     10        8          -0.000735579   -0.000240281   -0.001384968
     11        8          -0.065613097   -0.003528888   -0.042267992
     12        8           0.000159336    0.003470460    0.003983912
     13        1           0.005150946    0.005531184   -0.001141625
     14        1          -0.000063030   -0.000062555    0.000740314
     15        1          -0.000022966    0.000241914    0.000327054
     16        1          -0.000267003    0.001004861   -0.000272499
     17        1          -0.000326388   -0.000140490   -0.001597748
     18        1          -0.000212545   -0.000892304   -0.001215485
     19        1           0.000434948    0.000307875   -0.001669028
     20        1           0.004850555    0.006461522    0.010582112
     21        1          -0.000839430    0.000370222    0.000341306
     22        1           0.002788550   -0.001272120   -0.000536003
     23        1          -0.085700980    0.008578039   -0.023825833
     24        1          -0.002218262    0.001133716    0.002924799
 -------------------------------------------------------------------
 Cartesian Forces:  Max     0.085700980 RMS     0.020582703

 GradGradGradGradGradGradGradGradGradGradGradGradGradGradGradGradGradGrad
 Berny optimization.
 Internal  Forces:  Max     0.047545714 RMS     0.009158405
 Search for a saddle point.
 Step number   1 out of a maximum of  144
 All quantities printed in internal units (Hartrees-Bohrs-Radians)
 Swaping is turned off.
 Second derivative matrix not updated -- analytic derivatives used.
 ITU=  0
     Eigenvalues ---   -0.07940  -0.00714   0.00231   0.00308   0.00417
     Eigenvalues ---    0.00466   0.00520   0.00721   0.00831   0.00978
     Eigenvalues ---    0.00987   0.01897   0.02009   0.03017   0.03315
     Eigenvalues ---    0.04055   0.04172   0.04314   0.04603   0.04825
     Eigenvalues ---    0.05006   0.05446   0.05656   0.05821   0.05958
     Eigenvalues ---    0.06195   0.06312   0.06797   0.06912   0.07940
     Eigenvalues ---    0.08812   0.09560   0.10305   0.11893   0.13071
     Eigenvalues ---    0.14449   0.15362   0.15895   0.16973   0.17226
     Eigenvalues ---    0.17706   0.18620   0.19058   0.20287   0.23057
     Eigenvalues ---    0.24779   0.25276   0.26490   0.30475   0.30922
     Eigenvalues ---    0.31170   0.31640   0.31764   0.32456   0.33175
     Eigenvalues ---    0.33396   0.34072   0.36776   0.37982   0.38336
     Eigenvalues ---    0.39355   0.40262   0.51194   0.51933   0.52250
     Eigenvalues ---    0.52273
 Eigenvectors required to have negative eigenvalues:
                          R21       R25       R3        R2        R17
   1                    0.65648  -0.39921   0.39544  -0.20499  -0.20267
                          D73       D75       D79       D70       A45
   1                    0.13025   0.10988  -0.09012  -0.08118   0.07523
 RFO step:  Lambda0=1.933576317D-02 Lambda=-6.22626450D-02.
 Linear search not attempted -- option 19 set.
 Maximum step size (   0.300) exceeded in Quadratic search.
    -- Step size scaled by   0.392
 Iteration  1 RMS(Cart)=  0.02707302 RMS(Int)=  0.00156214
 Iteration  2 RMS(Cart)=  0.00094295 RMS(Int)=  0.00088777
 Iteration  3 RMS(Cart)=  0.00000291 RMS(Int)=  0.00088776
 Iteration  4 RMS(Cart)=  0.00000000 RMS(Int)=  0.00088776
 Variable       Old X    -DE/DX   Delta X   Delta X   Delta X     New X
                                 (Linear)    (Quad)   (Total)
    R1        2.78918   0.02314   0.00000   0.02718   0.02701   2.81619
    R2        2.67173  -0.04406   0.00000  -0.09707  -0.09750   2.57423
    R3        3.33537  -0.03951   0.00000  -0.01516  -0.01598   3.31939
    R4        2.07294  -0.00219   0.00000   0.00324   0.00324   2.07619
    R5        2.88886  -0.00135   0.00000  -0.00305  -0.00280   2.88606
    R6        2.68037   0.01286   0.00000   0.00730   0.00730   2.68767
    R7        2.06903   0.00048   0.00000   0.00001   0.00001   2.06904
    R8        2.87748   0.00085   0.00000   0.00260   0.00310   2.88058
    R9        2.68033  -0.00068   0.00000  -0.00006  -0.00006   2.68028
   R10        2.08195  -0.00114   0.00000  -0.00084  -0.00084   2.08111
   R11        2.89384  -0.00444   0.00000  -0.00701  -0.00680   2.88704
   R12        2.67691  -0.00127   0.00000  -0.00230  -0.00230   2.67461
   R13        2.07923   0.00011   0.00000   0.00097   0.00097   2.08021
   R14        2.88331   0.01647   0.00000   0.00242   0.00242   2.88573
   R15        2.58893   0.04075   0.00000   0.04620   0.04946   2.63840
   R16        2.07459   0.00887   0.00000  -0.00418  -0.00418   2.07041
   R17        3.15344   0.03156   0.00000   0.12608   0.12611   3.27955
   R18        2.67269  -0.00544   0.00000  -0.00150  -0.00150   2.67120
   R19        2.08043  -0.00033   0.00000  -0.00009  -0.00009   2.08034
   R20        2.06497   0.00097   0.00000   0.00004   0.00004   2.06501
   R21        2.64562  -0.04755   0.00000  -0.00961  -0.00929   2.63632
   R22        1.82628   0.00101   0.00000   0.00112   0.00112   1.82740
   R23        1.82339   0.00002   0.00000   0.00007   0.00007   1.82346
   R24        1.82199   0.00016   0.00000   0.00012   0.00012   1.82210
   R25        2.75933   0.00031   0.00000  -0.19540  -0.19853   2.56080
   R26        1.82215   0.00033   0.00000   0.00057   0.00057   1.82273
    A1        2.06318  -0.00461   0.00000   0.01155   0.01215   2.07533
    A2        1.83947   0.00093   0.00000   0.00565   0.00544   1.84491
    A3        1.98244   0.00478   0.00000  -0.00448  -0.00479   1.97765
    A4        1.57080   0.01405   0.00000   0.01345   0.01255   1.58335
    A5        2.08287  -0.00496   0.00000  -0.00911  -0.00906   2.07381
    A6        1.83067  -0.00757   0.00000  -0.01492  -0.01458   1.81609
    A7        1.98581  -0.00173   0.00000  -0.00095  -0.00034   1.98547
    A8        1.84056   0.00700   0.00000   0.00189   0.00175   1.84231
    A9        1.93666  -0.00218   0.00000   0.00202   0.00174   1.93840
   A10        1.94002  -0.00429   0.00000  -0.00187  -0.00169   1.93834
   A11        1.89856   0.00219   0.00000  -0.00009  -0.00060   1.89795
   A12        1.85786  -0.00101   0.00000  -0.00097  -0.00085   1.85701
   A13        1.92731   0.00310   0.00000   0.00485   0.00434   1.93165
   A14        1.94182  -0.00025   0.00000  -0.00266  -0.00294   1.93888
   A15        1.89877  -0.00221   0.00000  -0.00131  -0.00079   1.89798
   A16        1.88255  -0.00200   0.00000  -0.00668  -0.00636   1.87619
   A17        1.88787   0.00013   0.00000   0.00419   0.00422   1.89209
   A18        1.92486   0.00130   0.00000   0.00186   0.00176   1.92662
   A19        1.91438  -0.00218   0.00000   0.00501   0.00492   1.91930
   A20        1.94117  -0.00111   0.00000  -0.00135  -0.00098   1.94020
   A21        1.90278   0.00246   0.00000  -0.00145  -0.00175   1.90103
   A22        1.87667   0.00243   0.00000  -0.00748  -0.00789   1.86877
   A23        1.89369  -0.00166   0.00000   0.00575   0.00618   1.89987
   A24        1.93444  -0.00002   0.00000  -0.00024  -0.00024   1.93420
   A25        1.96935  -0.00461   0.00000  -0.00171  -0.00216   1.96718
   A26        1.99253   0.00097   0.00000   0.01979   0.01728   2.00982
   A27        1.89806  -0.00161   0.00000  -0.01247  -0.01125   1.88681
   A28        2.29229  -0.01215   0.00000  -0.02815  -0.03002   2.26227
   A29        1.71802   0.01611   0.00000   0.03102   0.03131   1.74932
   A30        1.91204  -0.00424   0.00000   0.00091   0.00024   1.91228
   A31        2.02043   0.01675   0.00000   0.02597   0.02499   2.04542
   A32        1.96872  -0.00587   0.00000  -0.03492  -0.03356   1.93515
   A33        0.98413   0.00704   0.00000   0.08200   0.08127   1.06540
   A34        1.95360  -0.00148   0.00000  -0.00660  -0.00659   1.94700
   A35        1.89862  -0.00115   0.00000   0.00118   0.00117   1.89979
   A36        1.89857   0.00364   0.00000   0.00394   0.00394   1.90252
   A37        1.94409   0.00152   0.00000   0.00017   0.00017   1.94425
   A38        1.87327  -0.00167   0.00000   0.00239   0.00240   1.87567
   A39        1.89426  -0.00074   0.00000  -0.00084  -0.00084   1.89342
   A40        1.57080  -0.00172   0.00000  -0.05601  -0.05696   1.51383
   A41        1.84861   0.00437   0.00000   0.00239   0.00239   1.85100
   A42        1.85869   0.00112   0.00000   0.00164   0.00164   1.86034
   A43        1.85587   0.00052   0.00000  -0.00115  -0.00115   1.85472
   A44        1.91618  -0.00014   0.00000   0.02070   0.02023   1.93641
   A45        1.31815  -0.01703   0.00000  -0.02966  -0.03186   1.28628
   A46        1.85026  -0.00182   0.00000   0.00070   0.00070   1.85096
   A47        2.09057   0.01026   0.00000   0.01690   0.01465   2.10522
   A48        1.82345   0.00470   0.00000   0.07222   0.07550   1.89895
    D1       -0.76615  -0.00876   0.00000  -0.02897  -0.02917  -0.79532
    D2        1.36442  -0.01031   0.00000  -0.03057  -0.03026   1.33416
    D3       -2.91396  -0.00869   0.00000  -0.02970  -0.02946  -2.94342
    D4        0.95288   0.00684   0.00000  -0.00552  -0.00641   0.94647
    D5        3.08346   0.00530   0.00000  -0.00712  -0.00751   3.07595
    D6       -1.19492   0.00692   0.00000  -0.00626  -0.00670  -1.20162
    D7        2.94725   0.00071   0.00000  -0.02225  -0.02299   2.92425
    D8       -1.20536  -0.00083   0.00000  -0.02385  -0.02409  -1.22945
    D9        0.79944   0.00079   0.00000  -0.02298  -0.02329   0.77616
   D10        1.87679   0.00601   0.00000   0.04183   0.04061   1.91740
   D11        0.00000  -0.00219   0.00000   0.02582   0.02491   0.02491
   D12       -1.87001  -0.00081   0.00000   0.03679   0.03605  -1.83395
   D13       -0.95560  -0.00165   0.00000   0.05158   0.05169  -0.90391
   D14       -2.08325   0.00242   0.00000  -0.04280  -0.04443  -2.12768
   D15        1.12765  -0.00191   0.00000   0.06882   0.06944   1.19709
   D16        0.00000   0.00216   0.00000  -0.02557  -0.02668  -0.02668
   D17       -3.05303  -0.00395   0.00000   0.06110   0.06147  -2.99156
   D18        2.10251   0.00013   0.00000  -0.03328  -0.03465   2.06786
   D19       -1.04823   0.00145   0.00000  -0.01667  -0.01642  -1.06465
   D20       -3.13812   0.00207   0.00000  -0.00976  -0.00938   3.13568
   D21        1.02113   0.00209   0.00000  -0.00950  -0.00917   1.01196
   D22       -3.12284  -0.00332   0.00000  -0.01711  -0.01724  -3.14008
   D23        1.07045  -0.00270   0.00000  -0.01020  -0.01020   1.06025
   D24       -1.05348  -0.00268   0.00000  -0.00994  -0.00999  -1.06347
   D25        1.12026  -0.00094   0.00000  -0.01479  -0.01486   1.10540
   D26       -0.96963  -0.00032   0.00000  -0.00787  -0.00782  -0.97745
   D27       -3.09356  -0.00031   0.00000  -0.00762  -0.00761  -3.10117
   D28       -0.77554  -0.00149   0.00000  -0.00567  -0.00604  -0.78158
   D29        1.38429  -0.00159   0.00000  -0.00672  -0.00631   1.37798
   D30       -2.83409  -0.00190   0.00000  -0.00843  -0.00847  -2.84256
   D31        0.97747  -0.00235   0.00000   0.00567   0.00651   0.98398
   D32        3.05121  -0.00143   0.00000  -0.00123  -0.00074   3.05046
   D33       -1.09377  -0.00051   0.00000  -0.00340  -0.00286  -1.09663
   D34        3.10276  -0.00204   0.00000   0.00110   0.00148   3.10424
   D35       -1.10669  -0.00112   0.00000  -0.00580  -0.00577  -1.11246
   D36        1.03152  -0.00020   0.00000  -0.00797  -0.00789   1.02363
   D37       -1.09853  -0.00154   0.00000   0.00190   0.00235  -1.09618
   D38        0.97520  -0.00062   0.00000  -0.00500  -0.00490   0.97030
   D39        3.11341   0.00030   0.00000  -0.00717  -0.00703   3.10639
   D40       -0.86499   0.00124   0.00000  -0.00071  -0.00103  -0.86602
   D41       -2.98127  -0.00114   0.00000  -0.00073  -0.00048  -2.98175
   D42        1.24369  -0.00084   0.00000  -0.00288  -0.00280   1.24089
   D43       -3.00277  -0.00860   0.00000  -0.00230  -0.00257  -3.00534
   D44       -1.06009   0.00938   0.00000   0.04817   0.04714  -1.01295
   D45        1.15524   0.00097   0.00000   0.00646   0.00636   1.16160
   D46        0.08510  -0.00826   0.00000  -0.09549  -0.09301  -0.00792
   D47        1.16729  -0.00745   0.00000   0.00095   0.00055   1.16784
   D48        3.10997   0.01052   0.00000   0.05143   0.05027  -3.12295
   D49       -0.95788   0.00211   0.00000   0.00972   0.00949  -0.94840
   D50       -2.02803  -0.00712   0.00000  -0.09224  -0.08989  -2.11791
   D51       -0.92593  -0.00788   0.00000   0.00227   0.00191  -0.92402
   D52        1.01676   0.01010   0.00000   0.05275   0.05162   1.06838
   D53       -3.05110   0.00169   0.00000   0.01104   0.01084  -3.04026
   D54        2.16194  -0.00755   0.00000  -0.09092  -0.08853   2.07341
   D55        0.88209   0.00124   0.00000   0.00001   0.00002   0.88211
   D56        2.97830  -0.00055   0.00000   0.00063   0.00049   2.97880
   D57       -1.23774  -0.00111   0.00000   0.00294   0.00307  -1.23467
   D58        1.10488   0.00359   0.00000   0.00295   0.00202   1.10690
   D59       -3.02252   0.00370   0.00000  -0.00044  -0.00137  -3.02389
   D60       -0.96214   0.00422   0.00000   0.00145   0.00052  -0.96161
   D61       -1.00280  -0.00491   0.00000  -0.03732  -0.03600  -1.03880
   D62        1.15299  -0.00480   0.00000  -0.04071  -0.03939   1.11360
   D63       -3.06982  -0.00428   0.00000  -0.03882  -0.03749  -3.10731
   D64       -3.06104  -0.00457   0.00000  -0.01346  -0.01356  -3.07460
   D65       -0.90526  -0.00446   0.00000  -0.01686  -0.01695  -0.92221
   D66        1.15513  -0.00394   0.00000  -0.01496  -0.01505   1.14007
   D67       -1.99193   0.00415   0.00000   0.08228   0.08198  -1.90995
   D68        0.16386   0.00427   0.00000   0.07888   0.07859   0.24244
   D69        2.22424   0.00478   0.00000   0.08078   0.08049   2.30472
   D70        1.01358   0.00160   0.00000  -0.06289  -0.06283   0.95074
   D71        3.10398   0.00628   0.00000  -0.03777  -0.03774   3.06624
   D72       -1.16466   0.00793   0.00000  -0.03282  -0.03363  -1.19830
   D73       -0.15866   0.00572   0.00000   0.14969   0.14746  -0.01120
   D74        2.92795   0.00550   0.00000   0.05359   0.05289   2.98084
   D75       -1.65871  -0.00724   0.00000   0.07192   0.07368  -1.58503
   D76        0.92916  -0.00119   0.00000   0.00815   0.00815   0.93731
   D77       -1.20080   0.00026   0.00000   0.01121   0.01121  -1.18959
   D78        3.01115   0.00133   0.00000   0.01065   0.01065   3.02180
   D79       -0.93412  -0.00888   0.00000  -0.08408  -0.08237  -1.01650
   D80        0.00000   0.00273   0.00000  -0.03223  -0.03411  -0.03411
   D81        0.00000  -0.00226   0.00000   0.02667   0.02751   0.02751
         Item               Value     Threshold  Converged?
 Maximum Force            0.047546     0.000450     NO 
 RMS     Force            0.009158     0.000300     NO 
 Maximum Displacement     0.161358     0.001800     NO 
 RMS     Displacement     0.027042     0.001200     NO 
 Predicted change in Energy=-2.153326D-02
 GradGradGradGradGradGradGradGradGradGradGradGradGradGradGradGradGradGrad

                          Input orientation:                          
 ---------------------------------------------------------------------
 Center     Atomic      Atomic             Coordinates (Angstroms)
 Number     Number       Type             X           Y           Z
 ---------------------------------------------------------------------
      1          6           0        1.482953    0.722366    0.425567
      2          6           0        0.939176   -0.112398    1.533879
      3          6           0        1.642071    0.107583    2.871790
      4          6           0        3.120256   -0.250018    2.768362
      5          6           0        3.776178    0.560382    1.651647
      6          6           0        5.209275    0.117445    1.365367
      7          8           0        1.720893    2.044304    0.652546
      8          8           0       -0.440762    0.220833    1.620700
      9          8           0        1.076175   -0.707039    3.885620
     10          8           0        3.806505    0.061887    3.966264
     11          8           0        3.208425    0.395730    0.386790
     12          8           0        5.256936   -1.214596    0.894749
     13          1           0        1.130015    0.410554   -0.567049
     14          1           0        0.120906   -0.578190    3.841367
     15          1           0        3.295492   -0.334597    4.681371
     16          1           0        4.655239   -1.253153    0.141874
     17          1           0        0.984853   -1.177256    1.283336
     18          1           0        1.559865    1.171500    3.144054
     19          1           0        3.212683   -1.321160    2.531999
     20          1           0        3.770403    1.615169    1.947890
     21          1           0        5.659525    0.815129    0.642581
     22          1           0        5.786409    0.158664    2.292366
     23          1           0        3.078268    1.731061    0.577284
     24          1           0       -0.486924    1.185220    1.566400
 ---------------------------------------------------------------------
                    Distance matrix (angstroms):
                    1          2          3          4          5
     1  C    0.000000
     2  C    1.490262   0.000000
     3  C    2.527308   1.527239   0.000000
     4  C    3.019102   2.509980   1.524339   0.000000
     5  C    2.605454   2.918062   2.499638   1.527754   0.000000
     6  C    3.890325   4.279600   3.872255   2.543113   1.527061
     7  O    1.362225   2.457478   2.946548   3.420352   2.724780
     8  O    2.319603   1.422255   2.432333   3.770899   4.230701
     9  O    3.765718   2.429619   1.418342   2.373900   3.726527
    10  O    4.286218   3.764100   2.425848   1.415342   2.367883
    11  O    1.756544   2.592972   2.951563   2.469139   1.396179
    12  O    4.267892   4.501820   4.327136   3.001039   2.432301
    13  H    1.098670   2.173430   3.489929   3.939845   3.456477
    14  H    3.900552   2.492193   1.929845   3.202364   4.410468
    15  H    4.744927   3.938058   2.490764   1.922879   3.195508
    16  H    3.747873   4.128938   4.287567   3.203262   2.518148
    17  H    2.142997   1.094888   2.146143   2.761343   3.308555
    18  H    2.756413   2.150887   1.101274   2.143987   2.740947
    19  H    3.406614   2.761555   2.150253   1.100798   2.152382
    20  H    2.889116   3.342415   2.766985   2.138875   1.095613
    21  H    4.183235   4.892486   4.648649   3.478702   2.151769
    22  H    4.724662   4.913700   4.184960   2.738972   2.147773
    23  H    1.893545   2.981465   3.156438   2.954193   1.735460
    24  H    2.322962   1.928375   2.719920   4.064034   4.309493
                    6          7          8          9         10
     6  C    0.000000
     7  O    4.048421   0.000000
     8  O    5.656748   2.989168   0.000000
     9  O    4.910597   4.293986   2.879566   0.000000
    10  O    2.955591   4.388677   4.854504   2.837684   0.000000
    11  O    2.244651   2.236330   3.856123   4.243159   3.644419
    12  O    1.413536   4.814841   5.920408   5.165431   3.628686
    13  H    4.523329   2.122660   2.699922   4.591096   5.275992
    14  H    5.701401   4.427867   2.425957   0.964935   3.742851
    15  H    3.855229   4.936594   4.861666   2.386901   0.964216
    16  H    1.918965   4.443467   5.507158   5.208029   4.132268
    17  H    4.419131   3.364239   2.025054   2.646001   4.085988
    18  H    4.194396   2.644869   2.688286   2.076724   2.637169
    19  H    2.723416   4.133296   4.068891   2.602710   2.079077
    20  H    2.157050   2.462228   4.448048   4.050469   2.547120
    21  H    1.100867   4.125990   6.206723   5.817335   3.879166
    22  H    1.092754   4.772114   6.263598   5.047197   2.594479
    23  H    2.786758   1.395082   3.969015   4.571410   3.847292
    24  H    5.798900   2.539215   0.967017   3.376788   5.045271
                   11         12         13         14         15
    11  O    0.000000
    12  O    2.654726   0.000000
    13  H    2.286879   4.670058   0.000000
    14  H    4.734490   5.955365   4.629259   0.000000
    15  H    4.357107   4.354327   5.726294   3.292862   0.000000
    16  H    2.207277   0.964545   3.962032   5.890840   4.826975
    17  H    2.867465   4.289882   2.442568   2.765647   4.194730
    18  H    3.304856   4.941777   3.812623   2.370287   2.764791
    19  H    2.747664   2.621243   4.115876   3.438828   2.366424
    20  H    2.059098   3.365480   3.840268   4.659925   3.391024
    21  H    2.499844   2.084574   4.705672   6.545981   4.818957
    22  H    3.214565   2.029659   5.470074   5.919483   3.486448
    23  H    1.355115   3.677536   2.617045   4.973215   4.599745
    24  H    3.958583   6.261163   2.786791   2.941861   5.130259
                   16         17         18         19         20
    16  H    0.000000
    17  H    3.844532   0.000000
    18  H    4.947057   3.051158   0.000000
    19  H    2.792542   2.557948   3.052831   0.000000
    20  H    3.503127   3.999819   2.552279   3.045367   0.000000
    21  H    2.353102   5.121790   4.815764   3.757748   2.431600
    22  H    2.810229   5.085053   4.428870   2.978484   2.510847
    23  H    3.403227   3.652287   3.034298   3.626987   1.539819
    24  H    5.866582   2.797775   2.584284   4.571807   4.295954
                   21         22         23         24
    21  H    0.000000
    22  H    1.780123   0.000000
    23  H    2.739723   3.570430   0.000000
    24  H    6.226496   6.398090   3.739905   0.000000
 Symmetry turned off by external request.
 Stoichiometry    C6H12O6
 Framework group  C1[X(C6H12O6)]
 Deg. of freedom    66
 Full point group                 C1      NOp   1
 Rotational constants (GHZ):      1.2683287      0.7821846      0.5778285
 Standard basis: 6-31G(2df,p) (6D, 7F)
 Integral buffers will be    131072 words long.
 Raffenetti 2 integral format.
 Two-electron integral symmetry is turned off.
   396 basis functions,   612 primitive gaussians,   432 cartesian basis functions
    48 alpha electrons       48 beta electrons
       nuclear repulsion energy       838.4531526972 Hartrees.
 NAtoms=   24 NActive=   24 NUniq=   24 SFac= 1.00D+00 NAtFMM=   50 NAOKFM=F Big=F
 One-electron integrals computed using PRISM.
 NBasis=   396 RedAO= T  NBF=   396
 NBsUse=   396 1.00D-06 NBFU=   396
 Initial guess read from the read-write file.
 B after Tr=     0.000000    0.000000    0.000000
         Rot=    1.000000    0.000000    0.000000    0.000000 Ang=   0.00 deg.
 Harris functional with IExCor=  402 diagonalized for initial guess.
 ExpMin= 1.61D-01 ExpMax= 5.48D+03 ExpMxC= 8.25D+02 IAcc=1 IRadAn=         1 AccDes= 0.00D+00
 HarFok:  IExCor=  402 AccDes= 0.00D+00 IRadAn=         1 IDoV= 1
 ScaDFX=  1.000000  1.000000  1.000000  1.000000
 FoFCou: FMM=F IPFlag=           0 FMFlag=      100000 FMFlg1=           0
         NFxFlg=           0 DoJE=T BraDBF=F KetDBF=T FulRan=T
         Omega=  0.000000  0.000000  1.000000  0.000000  0.000000 ICntrl=     500 IOpCl=  0
         NMat0=    1 NMatS0=    1 NMatT0=    0 NMatD0=    1 NMtDS0=    0 NMtDT0=    0
         I1Cent=           4 NGrid=           0.
 Symmetry not used in FoFCou.
 Requested convergence on RMS density matrix=1.00D-08 within 128 cycles.
 Requested convergence on MAX density matrix=1.00D-06.
 Requested convergence on             energy=1.00D-06.
 No special actions if energy rises.
 Integral accuracy reduced to 1.0D-05 until final iterations.
 Initial convergence to 1.0D-05 achieved.  Increase integral accuracy.
 SCF Done:  E(RB3LYP) =  -687.108034420     A.U. after   13 cycles
             Convg  =    0.5544D-08             -V/T =  2.0063
 Calling FoFJK, ICntrl=      2127 FMM=F ISym2X=0 I1Cent= 0 IOpClX= 0 NMat=1 NMatS=1 NMatT=0.
 -------------------------------------------------------------------
 Center     Atomic                   Forces (Hartrees/Bohr)
 Number     Number              X              Y              Z
 -------------------------------------------------------------------
      1        6           0.059316501    0.034367953    0.001191363
      2        6          -0.006788760   -0.003840017    0.008717885
      3        6           0.001190173    0.002511335    0.000314634
      4        6          -0.003052078   -0.000706670   -0.000766804
      5        6           0.031652414   -0.021465006    0.028620553
      6        6           0.013193492   -0.000831230    0.010667028
      7        8           0.013155573   -0.021990402   -0.004352618
      8        8          -0.006737445   -0.000049210    0.002355954
      9        8          -0.000252233   -0.000340383   -0.001597611
     10        8          -0.000179736   -0.000102083   -0.001071617
     11        8          -0.043683063    0.011900276   -0.025021272
     12        8          -0.000253091    0.002112096    0.002480776
     13        1           0.004798173    0.002048650   -0.001261660
     14        1          -0.000043546   -0.000019752    0.000477913
     15        1          -0.000037410    0.000156557    0.000225802
     16        1           0.000273683    0.000687975   -0.000455802
     17        1          -0.000616676    0.000018552   -0.001638549
     18        1           0.000241372   -0.000502311   -0.000915875
     19        1          -0.000013699    0.000246473   -0.000979315
     20        1           0.003452236    0.003629791    0.008842081
     21        1          -0.000627818    0.000410516    0.000326157
     22        1           0.001823836   -0.001153593   -0.000359428
     23        1          -0.065416087   -0.007752873   -0.028196983
     24        1          -0.001395812    0.000663356    0.002397389
 -------------------------------------------------------------------
 Cartesian Forces:  Max     0.065416087 RMS     0.014967480

 GradGradGradGradGradGradGradGradGradGradGradGradGradGradGradGradGradGrad
 Berny optimization.
 Internal  Forces:  Max     0.032478557 RMS     0.006557115
 Search for a saddle point.
 Step number   2 out of a maximum of  144
 All quantities printed in internal units (Hartrees-Bohrs-Radians)
 Swaping is turned off.
 Update second derivatives using D2CorX and points    1    2
 ITU=  0  0
     Eigenvalues ---   -0.08580  -0.00180   0.00254   0.00311   0.00419
     Eigenvalues ---    0.00469   0.00521   0.00721   0.00831   0.00986
     Eigenvalues ---    0.00989   0.01908   0.02009   0.03020   0.03317
     Eigenvalues ---    0.04095   0.04182   0.04330   0.04624   0.04820
     Eigenvalues ---    0.05002   0.05448   0.05656   0.05819   0.05963
     Eigenvalues ---    0.06194   0.06308   0.06794   0.06914   0.07929
     Eigenvalues ---    0.08807   0.09469   0.10305   0.11884   0.13060
     Eigenvalues ---    0.14448   0.15356   0.15882   0.16968   0.17240
     Eigenvalues ---    0.17710   0.18617   0.19158   0.20359   0.23077
     Eigenvalues ---    0.24814   0.25269   0.26487   0.30455   0.30923
     Eigenvalues ---    0.31170   0.31639   0.31761   0.32449   0.33175
     Eigenvalues ---    0.33402   0.34072   0.36724   0.37982   0.38333
     Eigenvalues ---    0.39340   0.40233   0.51194   0.51933   0.52249
     Eigenvalues ---    0.52273
 Eigenvectors required to have negative eigenvalues:
                          R21       R25       R3        R2        R17
   1                    0.63767  -0.42949   0.38367  -0.19053  -0.16679
                          D73       D75       D79       D70       D50
   1                    0.14684   0.11314  -0.09786  -0.09109  -0.08883
 RFO step:  Lambda0=5.533920578D-03 Lambda=-4.92944945D-02.
 Linear search not attempted -- option 19 set.
 Maximum step size (   0.300) exceeded in Quadratic search.
    -- Step size scaled by   0.410
 Iteration  1 RMS(Cart)=  0.02517356 RMS(Int)=  0.00177247
 Iteration  2 RMS(Cart)=  0.00109457 RMS(Int)=  0.00096843
 Iteration  3 RMS(Cart)=  0.00000379 RMS(Int)=  0.00096843
 Iteration  4 RMS(Cart)=  0.00000001 RMS(Int)=  0.00096843
 Variable       Old X    -DE/DX   Delta X   Delta X   Delta X     New X
                                 (Linear)    (Quad)   (Total)
    R1        2.81619   0.01603   0.00000   0.02006   0.01994   2.83613
    R2        2.57423  -0.02950   0.00000  -0.03987  -0.04118   2.53305
    R3        3.31939  -0.02700   0.00000  -0.06767  -0.06878   3.25061
    R4        2.07619  -0.00099   0.00000   0.00242   0.00242   2.07861
    R5        2.88606  -0.00078   0.00000  -0.00234  -0.00190   2.88417
    R6        2.68767   0.00833   0.00000   0.00334   0.00334   2.69101
    R7        2.06904   0.00033   0.00000   0.00044   0.00044   2.06948
    R8        2.88058   0.00094   0.00000   0.00199   0.00270   2.88328
    R9        2.68028  -0.00048   0.00000  -0.00015  -0.00015   2.68013
   R10        2.08111  -0.00073   0.00000  -0.00072  -0.00072   2.08039
   R11        2.88704  -0.00254   0.00000  -0.00221  -0.00203   2.88501
   R12        2.67461  -0.00081   0.00000  -0.00113  -0.00113   2.67348
   R13        2.08021  -0.00003   0.00000   0.00044   0.00044   2.08065
   R14        2.88573   0.01080   0.00000  -0.00195  -0.00195   2.88378
   R15        2.63840   0.02726   0.00000   0.04103   0.04498   2.68338
   R16        2.07041   0.00586   0.00000  -0.00802  -0.00802   2.06238
   R17        3.27955   0.02685   0.00000   0.17006   0.16826   3.44781
   R18        2.67120  -0.00330   0.00000   0.00105   0.00105   2.67224
   R19        2.08034  -0.00021   0.00000  -0.00012  -0.00012   2.08022
   R20        2.06501   0.00061   0.00000  -0.00001  -0.00001   2.06499
   R21        2.63632  -0.03248   0.00000  -0.06490  -0.06437   2.57195
   R22        1.82740   0.00060   0.00000   0.00074   0.00074   1.82814
   R23        1.82346   0.00002   0.00000   0.00006   0.00006   1.82352
   R24        1.82210   0.00013   0.00000   0.00012   0.00012   1.82222
   R25        2.56080  -0.00578   0.00000  -0.15653  -0.15751   2.40329
   R26        1.82273   0.00016   0.00000  -0.00008  -0.00008   1.82265
    A1        2.07533  -0.00231   0.00000   0.00426   0.00518   2.08050
    A2        1.84491   0.00067   0.00000   0.01851   0.01817   1.86307
    A3        1.97765   0.00264   0.00000  -0.00543  -0.00564   1.97201
    A4        1.58335   0.00956   0.00000   0.01000   0.00892   1.59227
    A5        2.07381  -0.00359   0.00000  -0.00964  -0.01005   2.06376
    A6        1.81609  -0.00521   0.00000  -0.00991  -0.00942   1.80667
    A7        1.98547  -0.00119   0.00000  -0.00209  -0.00164   1.98383
    A8        1.84231   0.00492   0.00000   0.00595   0.00581   1.84812
    A9        1.93840  -0.00147   0.00000  -0.00143  -0.00162   1.93678
   A10        1.93834  -0.00272   0.00000   0.00057   0.00083   1.93917
   A11        1.89795   0.00120   0.00000  -0.00243  -0.00293   1.89502
   A12        1.85701  -0.00075   0.00000  -0.00025  -0.00016   1.85685
   A13        1.93165   0.00174   0.00000  -0.00111  -0.00151   1.93014
   A14        1.93888  -0.00035   0.00000  -0.00280  -0.00306   1.93582
   A15        1.89798  -0.00114   0.00000   0.00189   0.00234   1.90032
[...]
 14,0.00040866,0.00228208,0.00093018,0.00352891,-0.00416106,0.00099324,
 -0.00741425,0.00128270,-0.00059063,0.00012972,0.00029524,-0.00002609,-
 0.00030049,-0.00002591,0.00006102,-0.00036985,-0.00016291,0.00003317,-
 0.00057637,0.00028673,-0.00190785,-0.00005029,-0.12544555,0.05974477,-
 0.20530175,0.00000760,-0.00007155,-0.00036343,-0.00004353,-0.00000431,
 0.00013047,0.00000375,-0.00002148,0.00003250,0.12939813,0.00234901,0.0
 0077422,0.00086779,-0.00013973,0.00037830,-0.00019369,0.00007271,0.000
 03420,-0.00017550,-0.00005078,0.00043313,-0.00012509,-0.00051396,0.000
 28126,-0.00277556,-0.02092698,0.00247209,-0.03928568,-0.00162046,-0.00
 012269,-0.00044950,-0.00022859,-0.00024465,0.00026649,-0.00008897,-0.0
 0013257,0.00021483,0.00003960,-0.00022292,0.00012435,-0.00233960,0.001
 24520,0.00114172,0.08382431,-0.08162898,0.13273102,-0.00019680,-0.0000
 5388,-0.00018333,0.00002242,0.00003286,-0.00003938,0.00004046,0.000007
 45,0.00002674,-0.06096714,0.08274163,0.00146057,0.00015067,0.00052897,
 0.00016607,-0.00008040,-0.00017084,0.00029882,0.00003557,-0.00014384,0
 .00020618,-0.00006751,-0.00094267,-0.00102672,0.00099677,-0.00116052,-
 0.01282937,0.00516947,-0.02535016,-0.00106989,-0.00012740,-0.00040781,
 -0.00032883,0.00004463,0.00006945,-0.00027032,-0.00009878,0.00020424,0
 .00013265,0.00010809,0.00052053,-0.00119134,0.00263183,0.00005331,-0.1
 9690720,0.08528515,-0.34755886,-0.00011111,-0.00016988,-0.00006892,0.0
 0004189,0.00001286,-0.00002087,0.00007152,0.00001000,-0.00006886,0.210
 28719,-0.08982757,0.37156184,0.00249819,-0.01242600,-0.00444667,-0.046
 39516,-0.01344741,-0.00030832,-0.00014043,-0.01724182,-0.00240823,0.00
 088864,-0.00188390,-0.00035809,-0.00003819,-0.00021738,0.00028571,-0.0
 0002093,-0.00012816,-0.00011087,-0.00003757,-0.00144760,0.00293937,-0.
 01196256,0.04163312,0.00115564,0.00066643,0.00147394,0.00142951,-0.000
 04393,0.00065721,0.00022664,-0.00107436,0.00033255,0.00000865,0.000097
 30,0.00016962,0.00005452,0.00019788,0.00033983,-0.00010403,-0.00002860
 ,0.00023434,-0.00028219,0.00003038,-0.00009561,-0.00003909,-0.00006165
 ,-0.00008175,0.00003867,0.06297527,0.00089429,-0.01176298,-0.00543288,
 -0.00641532,-0.30037724,-0.02992041,-0.00223681,-0.01088269,-0.0007950
 8,0.00092537,-0.00067867,-0.00025219,0.00027012,-0.00005484,0.00045138
 ,-0.00006179,-0.00017328,-0.00016343,-0.00138831,-0.00036923,0.0028072
 3,0.00845126,-0.00903279,0.00065186,0.00100887,0.00241801,0.00068643,-
 0.00009188,0.00059331,0.00029629,-0.00168376,0.00029327,0.00029094,0.0
 0014952,0.00021879,0.00005532,0.00011492,0.00095217,0.00073961,0.00013
 639,-0.00046223,-0.00014482,0.00005565,-0.00013418,-0.00002196,-0.0000
 7033,-0.00013533,0.00004253,-0.00075838,0.32787304,-0.00172412,0.02723
 860,0.00547145,0.00062640,-0.03165016,-0.05500427,-0.00466199,-0.03013
 844,-0.00580499,0.00187276,-0.00108090,0.00014549,-0.00015690,0.000109
 07,-0.00058172,0.00004087,-0.00001379,0.00018879,0.00217061,0.00333897
 ,-0.00461920,0.00199757,-0.00315748,0.00242745,0.00061227,0.00149629,0
 .00383605,-0.00036931,0.00073016,-0.00002543,0.00189846,-0.00018688,0.
 00002332,-0.00002636,-0.00003337,-0.00000972,-0.00047044,-0.00064782,0
 .00067722,0.00036560,-0.00050361,-0.00030617,-0.00005928,-0.00021031,0
 .00002906,0.00000906,0.00008602,0.00001320,0.00116202,0.03369364,0.058
 16927,-0.00044057,-0.00082910,0.00073632,0.00022361,-0.01677839,-0.007
 31938,-0.05312670,0.01311923,-0.00000226,-0.00373830,0.03250133,0.0090
 7337,0.00145427,0.00191583,-0.00058259,0.00008515,0.00031664,-0.000160
 59,-0.00026714,0.00069129,0.00026604,0.00232800,0.00044823,0.00190570,
 0.00083267,-0.01965055,0.00605081,0.00263857,-0.00251275,0.00002126,0.
 00049412,-0.00015634,0.00020897,-0.00031057,-0.00038882,0.00020932,0.0
 0024041,0.00014323,-0.00005279,0.00061394,-0.00086842,-0.00032138,-0.0
 0032277,0.00028952,-0.00015468,-0.00002405,0.00002844,-0.00004024,-0.0
 0132991,-0.00080267,-0.00253370,0.05688081,-0.00074877,-0.00237834,-0.
 00000515,0.00302591,-0.00959760,-0.00386188,0.01275367,-0.27301564,-0.
 04435655,0.00088877,-0.01132164,-0.00498800,-0.00067897,-0.00009933,0.
 00091022,0.00038931,0.00004321,-0.00012193,0.00020920,0.00145939,0.001
 77618,-0.00034313,0.00250509,0.00098044,-0.00820420,-0.01817124,0.0127
 6703,-0.00035614,0.00182379,0.00099664,-0.00035047,0.00057387,-0.00041
 750,-0.00002910,0.00043820,0.00015894,0.00012892,0.00026125,-0.0001778
 2,0.00099986,-0.00044442,0.00072573,-0.00041614,-0.00047190,-0.0000811
 6,-0.00000190,-0.00006282,-0.00002126,-0.00038467,0.00043166,-0.000750
 64,-0.00849782,0.30726281,-0.00004565,-0.00256421,0.00138550,0.0012227
 2,-0.02932008,-0.00628027,-0.00022195,-0.04424884,-0.05544490,-0.00022
 772,-0.00225001,-0.00031162,0.00052048,-0.00106879,0.00033560,-0.00002
 187,0.00002429,-0.00004203,-0.00038566,0.00182242,0.00058062,0.0018237
 7,0.00225595,0.00246960,0.00638175,0.03674182,-0.00586960,0.00054495,0
 .00037893,0.00095467,-0.00012910,0.00089693,-0.00013068,0.00009689,0.0
 0009736,-0.00005398,0.00008758,0.00035959,0.00022285,-0.00131026,0.000
 32613,0.00022647,0.00050152,0.00029709,0.00001130,-0.00001814,-0.00006
 064,0.00002263,-0.00286313,-0.00112894,-0.00439409,-0.00680096,0.03766
 436,0.06666333,-0.00054002,0.00030712,-0.00005874,0.00092345,0.0018501
 7,0.00099865,-0.00418414,0.03289332,0.00788937,-0.05219980,0.01459974,
 0.00750790,0.00050114,-0.01834749,-0.00389705,0.00035514,-0.00147385,-
 0.00102885,0.00012662,-0.00030789,-0.00019255,0.00003407,-0.00065888,-
 0.00024475,0.00241169,-0.00147669,-0.00105058,-0.00022882,-0.01679850,
 -0.01536241,0.00048481,0.00011821,0.00071116,-0.00027019,0.00093768,0.
 00025983,0.00017281,0.00004409,-0.00006584,0.00025442,-0.00012140,-0.0
 0019913,-0.00051597,-0.00015743,0.00066118,0.00026099,0.00003752,0.000
 12545,-0.00061238,-0.00048710,-0.00043741,-0.00558753,0.00154530,0.000
 54576,0.05989112,-0.00047608,-0.00059401,0.00021169,-0.00055829,-0.000
 91763,-0.00088482,0.00118445,-0.01264650,-0.00155869,0.01203677,-0.266
 65692,-0.06337888,-0.00121959,-0.01979425,-0.00493139,0.00086234,-0.00
 185676,-0.00143787,0.00016429,0.00035203,0.00008887,0.00008645,0.00076
 731,0.00006498,-0.00014501,0.00184355,-0.00019065,-0.00360453,0.005348
 68,-0.00766301,0.00056818,0.00065727,0.00138750,0.00213886,0.00195894,
 -0.00050444,0.00012290,0.00004820,0.00017731,-0.00000854,0.00004926,-0
 .00008011,-0.00073158,-0.00001763,-0.00015285,-0.00007831,-0.00014130,
 0.00013763,0.00065027,0.00093501,0.00060030,0.00186624,0.00028513,-0.0
 0020222,-0.01085694,0.29129227,0.00025512,-0.00013211,-0.00001773,-0.0
 0057848,0.00046456,0.00008066,0.00134378,-0.00311850,0.00145757,0.0068
 6211,-0.06305516,-0.06731791,-0.00042299,0.02059836,0.00735296,-0.0002
 6974,-0.00014923,0.00094666,0.00008383,0.00009113,-0.00002371,0.000249
 44,0.00022181,-0.00000296,-0.00063872,0.00004883,0.00069576,-0.0101118
 0,-0.03083629,-0.02693912,0.00028228,-0.00152898,0.00076555,0.00040154
 ,-0.00051580,-0.00064244,-0.00015795,0.00002398,-0.00002848,-0.0000364
 0,0.00009000,0.00010265,-0.00086979,-0.00154941,0.00056178,-0.00000681
 ,0.00017201,-0.00024447,-0.00006802,0.00019297,0.00034405,-0.00013820,
 0.00022392,0.00045313,0.00195171,0.07651548,0.08499442,0.00314070,-0.0
 0229752,-0.00167120,0.00011064,0.00025349,-0.00070892,0.00114190,-0.00
 165033,-0.00071036,-0.00268594,-0.01915412,-0.00565682,-0.05561845,-0.
 02466126,-0.00983395,0.00900503,0.02354325,0.01218482,0.00042772,0.001
 47931,0.00024306,-0.00019871,0.00005926,0.00038423,0.00008618,0.000575
 19,0.00020529,0.00093556,0.00203947,-0.00147857,-0.01030462,-0.0143933
 7,-0.01599671,-0.00587876,0.00538842,0.00362234,-0.00113172,-0.0000751
 6,-0.00004072,-0.00003833,0.00001054,-0.00008613,-0.00016880,0.0002285
 0,-0.00025513,-0.00045195,-0.00003023,-0.00069662,0.00003146,0.0000736
 9,0.00009661,-0.00047663,0.00064280,0.00015417,-0.00141198,-0.00142100
 ,0.00223989,0.06186262,-0.00094684,0.00145655,0.00065843,0.00006900,-0
 .00006830,0.00026829,0.00128919,-0.00014308,-0.00040114,-0.00357920,-0
 .02128523,-0.00823490,-0.02838210,-0.25639361,-0.10126063,-0.00557245,
 -0.01037983,-0.00414469,-0.00151017,-0.00091437,-0.00022191,-0.0000529
 1,0.00002254,-0.00009911,-0.00001338,0.00045325,0.00006133,0.00081425,
 0.00260068,-0.00102758,0.00329861,0.01115383,0.00550476,0.00306548,-0.
 00071561,-0.00151548,0.00050387,0.00009362,0.00005267,-0.00004169,0.00
 000522,0.00004673,0.00011411,0.00042156,-0.00001953,0.00003574,-0.0000
 2889,0.00047487,0.00011408,0.00010838,0.00011183,-0.00070698,0.0006555
 1,0.00017214,-0.00211401,-0.00120091,0.00271142,0.03138517,0.27300230,
 0.00475150,-0.00185108,-0.00250678,0.00009242,0.00035742,-0.00013939,-
 0.00119846,0.00039602,0.00040016,0.00356930,0.01813125,0.00718904,-0.0
 1081540,-0.09667797,-0.09060773,-0.00010649,-0.00891046,-0.00211688,-0
 .00027526,0.00092458,0.00012623,-0.00001967,-0.00011987,0.00033728,0.0
 0029655,-0.00006372,-0.00003490,0.00035486,-0.00025463,0.00164153,-0.0
 1821339,-0.01837650,-0.02423963,0.00150657,-0.00101864,0.00037532,-0.0
 0143006,-0.00000185,0.00000773,-0.00003812,-0.00008941,-0.00010823,0.0
 0003606,0.00011026,0.00019202,-0.00043766,0.00038615,0.00024017,0.0000
 2101,-0.00009573,0.00003498,0.00006334,-0.00019642,0.00007286,0.001729
 59,0.00188672,-0.00258995,0.01895601,0.10663693,0.11039915,-0.00088508
 ,-0.00022524,-0.00014432,0.00036186,-0.00001305,0.00028012,0.00064226,
 -0.00140934,0.00112113,-0.00493210,0.00430011,-0.00095400,-0.01898621,
 -0.01909875,0.02023532,-0.11805968,-0.08206085,0.06564631,0.00034179,-
 0.00007268,-0.00007064,-0.00018923,0.00013673,-0.00025697,-0.00105693,
 0.00004348,0.00011809,0.00058010,0.00000027,0.00015341,0.00370067,0.00
 007461,-0.00014127,0.00178763,-0.00678315,-0.00269933,0.00007068,0.000
 03084,-0.00002924,-0.00002862,-0.00006898,0.00022022,0.00010187,-0.000
 02573,-0.00007031,0.00000258,-0.00080091,0.00028301,0.00000585,0.00003
 063,-0.00004114,-0.00002625,0.00005832,0.00003313,0.00020596,-0.000026
 30,-0.00033464,0.00098435,0.00035086,-0.00033039,0.12586424,0.00022975
 ,-0.00009352,-0.00012573,-0.00004375,-0.00007692,-0.00007444,-0.000116
 36,0.00071134,-0.00054345,0.00326748,-0.00112591,0.00029679,0.00896787
 ,0.00895141,-0.00633405,-0.08374533,-0.15213697,0.08708351,-0.00021681
 ,0.00019661,-0.00000700,0.00000214,0.00001952,0.00005996,0.00046501,-0
 .00002472,-0.00007634,-0.00033206,0.00005181,0.00025772,-0.00115718,0.
 00057221,-0.00061485,-0.01813532,-0.03517821,0.00034033,0.00001009,-0.
 00000651,0.00007628,0.00005253,0.00000843,-0.00012227,0.00000356,-0.00
 001273,0.00000518,0.00158473,0.00038945,0.00095888,0.00003641,0.000033
 71,0.00000317,-0.00003301,-0.00001379,0.00001078,0.00038829,0.00019596
 ,-0.00024785,-0.00112219,0.00113913,0.00022694,0.09491660,0.18080798,0
 .00006308,0.00007004,-0.00016750,-0.00013810,-0.00005864,-0.00013984,-
 0.00042325,0.00055316,-0.00041687,0.00135430,-0.00169324,0.00043889,0.
 00308665,0.00759774,-0.00558130,0.06796249,0.08909200,-0.12311798,0.00
 006531,-0.00010270,0.00006931,0.00020494,-0.00004706,0.00011958,0.0005
 7623,-0.00000349,-0.00007570,0.00039941,-0.00004419,0.00008519,-0.0001
 1215,-0.00084656,0.00142957,-0.01237314,-0.02309727,0.01082982,-0.0000
 1285,-0.00000703,0.00004801,-0.00000680,0.00001834,-0.00007189,0.00004
 176,-0.00006545,0.00014179,-0.00022624,-0.00002324,0.00222947,0.000004
 03,-0.00000336,0.00001077,0.00004167,-0.00005799,-0.00000683,-0.000051
 62,-0.00003183,0.00002048,0.00017771,-0.00015979,-0.00013044,-0.075016
 61,-0.08725881,0.12604196,0.00247803,0.00093557,0.00009841,-0.00011730
 ,0.00003334,-0.00030245,-0.00008418,0.00024078,-0.00033699,-0.00019108
 ,-0.00008753,-0.00190029,-0.01294003,0.00758231,-0.02301316,-0.1166490
 7,0.03443769,-0.10545018,-0.00201481,0.00086693,-0.00006145,0.00007064
 ,-0.00017953,0.00036488,0.00036164,-0.00007030,0.00023479,0.00071890,-
 0.00002263,0.00024993,-0.00761876,0.00260176,-0.00115160,-0.00019742,-
 0.00126153,-0.00426561,-0.00015704,-0.00015077,-0.00000635,0.00000421,
 0.00001057,-0.00005999,0.00035301,-0.00023091,0.00035789,0.00024523,-0
 .00022897,-0.00020053,-0.00002641,-0.00003794,0.00005173,0.00004290,-0
 .00008587,-0.00001532,-0.00000357,-0.00022000,0.00022166,0.00031643,0.
 00037719,0.00060859,0.00981706,-0.00505534,0.01447802,0.12488982,-0.00
 193844,-0.00046622,-0.00043722,0.00011369,-0.00006342,0.00016170,0.000
 13346,-0.00005430,0.00017190,-0.00024235,0.00060939,0.00024205,0.00217
 131,-0.00151139,0.01070720,0.04250015,-0.07188475,0.06924602,0.0010393
 8,-0.00072469,0.00012099,0.00006288,0.00010611,-0.00018685,-0.00008912
 ,0.00001166,-0.00012134,-0.00028915,-0.00019287,0.00003848,0.00488674,
 0.00026360,0.00037433,-0.01858199,0.00365584,-0.03350649,0.00018769,0.
 00010766,0.00006805,-0.00000425,-0.00000489,0.00004571,-0.00014189,-0.
 00002637,-0.00010481,-0.00156908,-0.00495499,-0.00483935,0.00002015,0.
 00003693,-0.00004578,-0.00001776,0.00001365,0.00001850,0.00006349,0.00
 004392,-0.00022879,-0.00048208,-0.00008962,-0.00012350,0.01079620,-0.0
 0427093,0.01593653,-0.03839367,0.07902289,-0.00082095,-0.00024296,0.00
 009795,0.00004893,-0.00002060,0.00006854,-0.00004190,-0.00019794,0.000
 02532,-0.00037711,0.00035000,0.00021585,0.00185841,-0.00049294,0.00696
 824,-0.10635603,0.05943507,-0.22359242,0.00058466,-0.00046748,-0.00001
 222,-0.00004337,0.00006834,-0.00007592,-0.00007757,0.00000247,-0.00001
 708,0.00107006,0.00007540,-0.00068861,0.00414071,-0.00069527,0.0016543
 6,-0.01123691,-0.00317168,-0.02030129,0.00014281,0.00007446,0.00005929
 ,0.00000295,-0.00000934,0.00001603,0.00003651,0.00001101,-0.00017321,0
 .00003897,-0.00348636,-0.00020652,0.00001258,0.00001994,-0.00002000,0.
 00002467,0.00001291,0.00000358,-0.00010186,0.00000519,-0.00011582,-0.0
 0101620,0.00022593,0.00017002,-0.00822751,0.00600231,-0.01179562,0.120
 32208,-0.05768187,0.24751211,0.06176672,-0.10025758,0.02110342,-0.0018
 9979,0.00043500,-0.00242236,0.00292818,0.00043564,0.00027412,0.0058097
 2,0.00151992,0.00046852,-0.01843410,-0.00700623,-0.01342839,-0.0007836
 9,-0.00035481,-0.00007073,0.02759488,0.05810013,0.00249762,-0.00221990
 ,0.00363176,-0.00323135,-0.00198579,0.00021490,-0.00181094,-0.00252432
 ,-0.00104539,0.00258697,-0.02162262,-0.04704586,0.00523484,0.00162217,
 -0.00141723,-0.00017250,-0.00695686,0.00431629,0.00113500,0.00005324,-
 0.00013994,0.00097046,0.00094661,-0.00020272,0.00045437,-0.00120669,0.
 00161049,0.00145721,0.00051936,0.00097671,-0.00093806,0.00016202,0.000
 27714,0.00091235,-0.00025821,-0.00008771,-0.00016659,0.00027075,0.0015
 2152,0.00077910,-0.00027613,0.00002103,-0.00007504,0.00055537,-0.00011
 890,0.00005104,-0.04042140,-0.09293011,-0.00249962,-0.02036610,0.00104
 901,-0.00197244,0.00244416,-0.00121659,-0.00030243,0.00084163,-0.00272
 853,-0.00129126,0.00018094,0.00522281,0.01078555,0.00903815,-0.0009341
 6,0.00089409,-0.00281028,-0.04614656,-0.05837384,-0.00530145,0.0025976
 9,-0.00149323,0.00050324,0.00093233,0.00007810,0.00028915,0.00096804,0
 .00057430,-0.00176917,0.04317980,-0.05723913,-0.00168963,-0.00092013,0
 .00049441,-0.00002640,0.00428974,-0.00260854,-0.00000894,-0.00008176,0
 .00008175,-0.00024674,-0.00037551,0.00013522,-0.00014015,0.00100650,-0
 .00108699,-0.00079710,0.00001552,-0.00031709,0.00024013,-0.00000924,-0
 .00001663,-0.00022179,0.00010409,0.00007447,0.00001670,-0.00035255,0.0
 0010154,-0.00125115,-0.00009372,-0.00014358,0.00019197,-0.00115640,0.0
 0041514,0.00021269,0.08633101,0.11295425,0.01575395,-0.01462733,0.0213
 9088,-0.00155243,0.00112571,-0.00303290,0.00089308,0.00208701,-0.00049
 050,-0.00148947,0.00031160,-0.00170030,-0.00521487,0.01670336,-0.00566
 367,-0.00067685,-0.00079014,-0.00122458,0.01402224,0.01148643,-0.02037
 743,-0.00128435,0.00185802,-0.00069046,-0.00061346,-0.00082162,-0.0003
 2119,0.00020175,0.00006328,-0.00024037,-0.00144155,-0.03879389,-0.0306
 9086,0.00130360,-0.00058211,-0.00003711,0.00163524,-0.00003779,0.00018
 333,0.00012310,0.00005733,0.00025110,-0.00006046,-0.00002991,-0.000166
 31,-0.00087766,0.00075864,0.00091165,-0.00013199,0.00009901,-0.0002125
 4,0.00018312,-0.00050916,-0.00069812,0.00010193,-0.00005962,0.00015970
 ,0.00002071,0.00016651,0.00143264,0.00012121,0.00010389,0.00007754,-0.
 00002984,0.00003165,0.00016301,-0.01952301,0.02220260,0.03914630,-0.00
 519198,0.00844703,0.00269544,-0.00985039,0.04758659,-0.00997694,-0.000
 53934,0.00184891,-0.00026565,-0.00022045,-0.00005445,-0.00056564,-0.00
 052868,0.00007349,-0.00126735,-0.00005234,0.00007061,0.00042624,0.0064
 1154,-0.00210637,-0.00292968,-0.04295009,-0.02776639,0.01414562,-0.000
 49496,-0.00055314,0.00098480,-0.00021442,-0.00023528,0.00029428,0.0039
 1828,-0.00184203,0.00135312,0.00017007,-0.00022058,-0.00009639,0.00005
 355,-0.00097725,-0.00036482,0.00018591,-0.00004827,-0.00018587,-0.0000
 1343,0.00003553,-0.00000597,-0.00016696,0.00018992,0.00010292,-0.00613
 867,0.00094691,0.00051475,-0.00034603,-0.00082203,-0.00078532,0.000190
 38,-0.00024687,-0.00009123,0.00005256,-0.00001935,0.00009999,-0.000026
 67,0.00001187,-0.00001978,0.00014646,-0.00010646,-0.00003498,-0.003639
 51,0.00124871,-0.00146400,0.05924516,-0.00290869,0.00533719,-0.0007322
 1,0.00782130,-0.01816412,0.00103015,-0.00139002,0.00158264,0.00050570,
 0.00046973,-0.00016075,-0.00066243,0.00050610,0.00020579,-0.00050931,0
 .00012340,-0.00008559,0.00023624,0.00264874,-0.00410856,-0.00046683,0.
 01730504,-0.43918238,0.12086553,-0.00089609,-0.00028634,-0.00040951,-0
 .00072715,0.00006585,-0.00026905,0.00131428,-0.00167672,0.00170813,-0.
 00006348,-0.00001691,0.00005562,0.00005934,-0.00113404,-0.00003451,0.0
 0048091,-0.00024703,0.00126414,0.00015368,-0.00006488,0.00015284,0.000
 00448,0.00002622,-0.00002972,0.00243565,0.00048627,0.00077100,-0.00006
 811,-0.00016020,-0.00000076,-0.00008886,-0.00002608,-0.00000907,-0.000
 03930,0.00000534,-0.00002533,-0.00005995,0.00000621,0.00004086,0.00009
 525,-0.00004237,-0.00002926,-0.00171516,0.00075597,-0.00080346,-0.0254
 6111,0.45688449,0.00701967,-0.00661733,0.00140673,-0.00151710,-0.00446
 130,0.00041895,0.00022055,0.00261340,-0.00015365,-0.00090159,-0.000681
 63,0.00017882,0.00023777,-0.00023783,0.00165782,-0.00013008,0.00008532
 ,-0.00044089,-0.00617881,0.00057772,-0.00266425,0.00109021,0.13188741,
 -0.04597308,-0.00035881,-0.00074873,-0.00083380,0.00050742,0.00001788,
 -0.00010206,-0.00455856,0.00266322,-0.00220588,-0.00001642,0.00008053,
 -0.00010273,0.00010342,0.00051510,0.00013312,0.00009384,0.00116608,0.0
 0065202,-0.00017854,0.00012525,-0.00009366,0.00012717,-0.00015019,-0.0
 0001113,0.00378228,-0.00206834,-0.00039296,-0.00067780,-0.00067092,-0.
 00017002,0.00020826,0.00000071,-0.00001278,-0.00013349,-0.00000708,-0.
 00014517,0.00010440,-0.00002096,-0.00003843,-0.00019421,0.00011290,0.0
 0004443,0.00391394,-0.00153247,0.00183021,-0.00256353,-0.12264874,0.04
 701841\\-0.00000229,-0.00000950,0.00000220,0.00000361,-0.00000401,0.00
 000225,0.00000088,-0.00000409,0.00000032,-0.00000228,0.00000212,-0.000
 00005,-0.00000038,0.00000534,-0.00000800,-0.00000202,0.00000596,-0.000
 00534,-0.00000336,0.00000180,0.00000483,0.00000054,-0.00000615,0.00000
 238,0.00000225,-0.00000365,-0.00000006,0.00000292,0.00000200,-0.000001
 46,-0.00000185,0.00000036,0.00000944,0.00000126,0.00000524,-0.00000361
 ,-0.00000179,-0.00000314,0.00000196,0.00000355,-0.00000513,0.00000362,
 0.00000492,0.00000034,-0.00000049,-0.00000041,0.00000431,-0.00000252,0
 .00000204,-0.00000320,0.00000131,0.00000005,-0.00000214,0.00000110,0.0
 0000323,0.00000155,-0.00000146,-0.00000047,0.00000322,0.00000033,-0.00
 000215,0.00000667,-0.00000357,0.00000089,0.00000601,-0.00000380,-0.000
 00750,0.00000165,-0.00000524,-0.00000164,-0.00000556,0.00000586\\\@


 READER, WHETHER YOU BE DILETTANTE OR PROFESSOR ... SHOW YOURSELF TO BE
 MORE HUMAN THAN CRITICAL, AND THEN YOUR PLEASURE WILL INCREASE.
                                           -- DOMENICO SCARLATTI (1738)
 Job cpu time:  0 days  3 hours 25 minutes 51.9 seconds.
 File lengths (MBytes):  RWF=    339 Int=      0 D2E=      0 Chk=     12 Scr=      1
 Normal termination of Gaussian 09 at Thu May 26 11:20:10 2011.
