 Entering Gaussian System, Link 0=g09
 Initial command:
 /opt/software/gaussian/g09/l1.exe /scratch/Gau-18225.inp -scrdir=/scratch/
 Entering Link 1 = /opt/software/gaussian/g09/l1.exe PID=     18227.
  
 Copyright (c) 1988,1990,1992,1993,1995,1998,2003,2009,2010,
            Gaussian, Inc.  All Rights Reserved.
  
 This is part of the Gaussian(R) 09 program.  It is based on
 the Gaussian(R) 03 system (copyright 2003, Gaussian, Inc.),
 the Gaussian(R) 98 system (copyright 1998, Gaussian, Inc.),
 the Gaussian(R) 94 system (copyright 1995, Gaussian, Inc.),
 the Gaussian 92(TM) system (copyright 1992, Gaussian, Inc.),
 the Gaussian 90(TM) system (copyright 1990, Gaussian, Inc.),
 the Gaussian 88(TM) system (copyright 1988, Gaussian, Inc.),
 the Gaussian 86(TM) system (copyright 1986, Carnegie Mellon
 University), and the Gaussian 82(TM) system (copyright 1983,
 Carnegie Mellon University). Gaussian is a federally registered
 trademark of Gaussian, Inc.
  
 This software contains proprietary and confidential information,
 including trade secrets, belonging to Gaussian, Inc.
  
 This software is provided under written license and may be
 used, copied, transmitted, or stored only in accord with that
 written license.
  
 The following legend is applicable only to US Government
 contracts under FAR:
  
                    RESTRICTED RIGHTS LEGEND
  
 Use, reproduction and disclosure by the US Government is
 subject to restrictions as set forth in subparagraphs (a)
 and (c) of the Commercial Computer Software - Restricted
 Rights clause in FAR 52.227-19.
  
 Gaussian, Inc.
 340 Quinnipiac St., Bldg. 40, Wallingford CT 06492
  
  
 ---------------------------------------------------------------
 Warning -- This program may not be used in any manner that
 competes with the business of Gaussian, Inc. or will provide
 assistance to any competitor of Gaussian, Inc.  The licensee
 of this program is prohibited from giving any competitor of
 Gaussian, Inc. access to this program.  By using this program,
 the user acknowledges that Gaussian, Inc. is engaged in the
 business of creating and licensing software in the field of
 computational chemistry and represents and warrants to the
 licensee that it is not a competitor of Gaussian, Inc. and that
 it will not use this program in any manner prohibited above.
 ---------------------------------------------------------------
  

 Cite this work as:
 Gaussian 09, Revision B.01,
 M. J. Frisch, G. W. Trucks, H. B. Schlegel, G. E. Scuseria, 
 M. A. Robb, J. R. Cheeseman, G. Scalmani, V. Barone, B. Mennucci, 
 G. A. Petersson, H. Nakatsuji, M. Caricato, X. Li, H. P. Hratchian, 
 A. F. Izmaylov, J. Bloino, G. Zheng, J. L. Sonnenberg, M. Hada, 
 M. Ehara, K. Toyota, R. Fukuda, J. Hasegawa, M. Ishida, T. Nakajima, 
 Y. Honda, O. Kitao, H. Nakai, T. Vreven, J. A. Montgomery, Jr., 
 J. E. Peralta, F. Ogliaro, M. Bearpark, J. J. Heyd, E. Brothers, 
 K. N. Kudin, V. N. Staroverov, T. Keith, R. Kobayashi, J. Normand, 
 K. Raghavachari, A. Rendell, J. C. Burant, S. S. Iyengar, J. Tomasi, 
 M. Cossi, N. Rega, J. M. Millam, M. Klene, J. E. Knox, J. B. Cross, 
 V. Bakken, C. Adamo, J. Jaramillo, R. Gomperts, R. E. Stratmann, 
 O. Yazyev, A. J. Austin, R. Cammi, C. Pomelli, J. W. Ochterski, 
 R. L. Martin, K. Morokuma, V. G. Zakrzewski, G. A. Voth, 
 P. Salvador, J. J. Dannenberg, S. Dapprich, A. D. Daniels, 
 O. Farkas, J. B. Foresman, J. V. Ortiz, J. Cioslowski, 
 and D. J. Fox, Gaussian, Inc., Wallingford CT, 2010.
 
 ******************************************
 Gaussian 09:  AM64L-G09RevB.01 12-Aug-2010
                 7-Mar-2012 
 ******************************************
 %chk=gaussian/glucose/glucoseNa3bEtOHtgas.chk
 %mem=30GB
 %nproc=8
 Will use up to    8 processors via shared memory.
 Default route:  MaxDisk=200GB
 ----------------------------------------------------------------
 # opt=CalcAll m062x/6-31+g(2df,p) nosymm scf=(xqc,maxcycle=1000)
 ----------------------------------------------------------------
 1/10=4,14=-1,18=20,19=15,26=3,38=1/1,3;
 2/9=110,12=2,15=1,17=6,18=5,40=1/2;
 3/5=1,6=6,7=114,11=2,16=1,25=1,30=1,71=2,74=-55/1,2,3;
 4//1;
 5/5=2,7=1000,8=3,13=1,38=5/2,8;
 8/6=4,10=90,11=11/1;
 11/6=1,8=1,9=11,15=111,16=1,31=1/1,2,10;
 10/6=1,31=1/2;
 6/7=2,8=2,9=2,10=2,18=1,28=1/1;
 7/10=1,25=1,30=1/1,2,3,16;
 1/10=4,14=-1,18=20,19=15/3(3);
 2/9=110,15=1/2;
 7/8=1,9=1,25=1,30=1,44=-1/16;
 99//99;
 2/9=110,15=1/2;
 3/5=1,6=6,7=114,11=2,16=1,25=1,30=1,71=2,74=-55/1,2,3;
 4/5=5,16=3/1;
 5/5=2,7=1000,8=3,13=1,38=5/2,8;
 8/6=4,10=90,11=11/1;
 11/6=1,8=1,9=11,15=111,16=1,31=1/1,2,10;
 10/6=1,31=1/2;
 7/10=1,25=1,30=1/1,2,3,16;
 1/10=4,14=-1,18=20,19=15/3(-8);
 2/9=110,15=1/2;
 6/7=2,8=2,9=2,10=2,18=1,19=2,28=1/1;
 7/8=1,9=1,25=1,30=1,44=-1/16;
 99//99;
 -----------------------------
 glucoseNa3bEtOHtgas continued
 -----------------------------
 Symbolic Z-matrix:
 Charge =  1 Multiplicity = 1
 6                    -0.04081   0.13981   0.11265 
 6                    -0.58665   1.56231   0.03794 
 6                    -0.1302    2.18192  -1.26041 
 6                     1.38698   2.15505  -1.30708 
 6                     1.85854   0.69941  -1.16788 
 6                     3.37378   0.59086  -1.13066 
 8                    -0.46233  -0.36339   1.32762 
 8                    -2.01063   1.58005   0.08962 
 8                    -0.63474   3.513    -1.34853 
 8                     1.74408   2.74496  -2.53482 
 8                     1.35922   0.17851   0.0595 
 8                     3.94069   1.47748  -0.19813 
 1                    -0.42582  -0.46082  -0.73142 
 1                    -0.17551   2.1188    0.89087 
 1                    -0.52178   1.5992   -2.10846 
 1                     1.78863   2.72846  -0.4617 
 1                     1.47618   0.1087   -2.01645 
 1                    -0.20807  -1.2885    1.41568 
 1                    -2.28349   0.96679   0.78564 
 1                    -0.09141   3.9733   -2.00383 
 1                     2.65356   3.05849  -2.49423 
 1                     3.79669   1.13593   0.68963 
 1                     3.64778  -0.45108  -0.92843 
 1                     3.77524   0.85623  -2.11321 
 11                   -2.75719   3.5416   -0.67647 
 

 GradGradGradGradGradGradGradGradGradGradGradGradGradGradGradGradGradGrad
 Berny optimization.
 Initialization pass.
                           ----------------------------
                           !    Initial Parameters    !
                           ! (Angstroms and Degrees)  !
 --------------------------                            --------------------------
 ! Name  Definition              Value          Derivative Info.                !
 --------------------------------------------------------------------------------
 ! R1    R(1,2)                  1.5255         calculate D2E/DX2 analytically  !
 ! R2    R(1,7)                  1.381          calculate D2E/DX2 analytically  !
 ! R3    R(1,11)                 1.4016         calculate D2E/DX2 analytically  !
 ! R4    R(1,13)                 1.1052         calculate D2E/DX2 analytically  !
 ! R5    R(2,3)                  1.5093         calculate D2E/DX2 analytically  !
 ! R6    R(2,8)                  1.425          calculate D2E/DX2 analytically  !
 ! R7    R(2,14)                 1.0983         calculate D2E/DX2 analytically  !
 ! R8    R(3,4)                  1.5181         calculate D2E/DX2 analytically  !
 ! R9    R(3,9)                  1.4262         calculate D2E/DX2 analytically  !
 ! R10   R(3,15)                 1.1009         calculate D2E/DX2 analytically  !
 ! R11   R(4,5)                  1.5364         calculate D2E/DX2 analytically  !
 ! R12   R(4,10)                 1.4081         calculate D2E/DX2 analytically  !
 ! R13   R(4,16)                 1.0976         calculate D2E/DX2 analytically  !
 ! R14   R(5,6)                  1.5196         calculate D2E/DX2 analytically  !
 ! R15   R(5,11)                 1.4238         calculate D2E/DX2 analytically  !
 ! R16   R(5,17)                 1.1024         calculate D2E/DX2 analytically  !
 ! R17   R(6,12)                 1.4061         calculate D2E/DX2 analytically  !
 ! R18   R(6,23)                 1.0962         calculate D2E/DX2 analytically  !
 ! R19   R(6,24)                 1.0941         calculate D2E/DX2 analytically  !
 ! R20   R(7,18)                 0.9634         calculate D2E/DX2 analytically  !
 ! R21   R(8,19)                 0.9669         calculate D2E/DX2 analytically  !
 ! R22   R(8,25)                 2.2343         calculate D2E/DX2 analytically  !
 ! R23   R(9,20)                 0.9677         calculate D2E/DX2 analytically  !
 ! R24   R(9,25)                 2.2265         calculate D2E/DX2 analytically  !
 ! R25   R(10,21)                0.9629         calculate D2E/DX2 analytically  !
 ! R26   R(12,22)                0.962          calculate D2E/DX2 analytically  !
 ! A1    A(2,1,7)              105.8819         calculate D2E/DX2 analytically  !
 ! A2    A(2,1,11)             109.2575         calculate D2E/DX2 analytically  !
 ! A3    A(2,1,13)             110.1652         calculate D2E/DX2 analytically  !
 ! A4    A(7,1,11)             110.3846         calculate D2E/DX2 analytically  !
 ! A5    A(7,1,13)             111.5662         calculate D2E/DX2 analytically  !
 ! A6    A(11,1,13)            109.5138         calculate D2E/DX2 analytically  !
 ! A7    A(1,2,3)              108.4654         calculate D2E/DX2 analytically  !
 ! A8    A(1,2,8)              111.5545         calculate D2E/DX2 analytically  !
 ! A9    A(1,2,14)             107.4884         calculate D2E/DX2 analytically  !
 ! A10   A(3,2,8)              109.1649         calculate D2E/DX2 analytically  !
 ! A11   A(3,2,14)             110.2945         calculate D2E/DX2 analytically  !
 ! A12   A(8,2,14)             109.853          calculate D2E/DX2 analytically  !
 ! A13   A(2,3,4)              108.7485         calculate D2E/DX2 analytically  !
 ! A14   A(2,3,9)              109.2269         calculate D2E/DX2 analytically  !
 ! A15   A(2,3,15)             109.7421         calculate D2E/DX2 analytically  !
 ! A16   A(4,3,9)              111.6016         calculate D2E/DX2 analytically  !
 ! A17   A(4,3,15)             108.8082         calculate D2E/DX2 analytically  !
 ! A18   A(9,3,15)             108.697          calculate D2E/DX2 analytically  !
 ! A19   A(3,4,5)              108.7054         calculate D2E/DX2 analytically  !
 ! A20   A(3,4,10)             105.8325         calculate D2E/DX2 analytically  !
 ! A21   A(3,4,16)             109.4374         calculate D2E/DX2 analytically  !
 ! A22   A(5,4,10)             113.4566         calculate D2E/DX2 analytically  !
 ! A23   A(5,4,16)             108.2313         calculate D2E/DX2 analytically  !
 ! A24   A(10,4,16)            111.092          calculate D2E/DX2 analytically  !
 ! A25   A(4,5,6)              112.0824         calculate D2E/DX2 analytically  !
 ! A26   A(4,5,11)             108.4866         calculate D2E/DX2 analytically  !
 ! A27   A(4,5,17)             109.3592         calculate D2E/DX2 analytically  !
 ! A28   A(6,5,11)             107.6043         calculate D2E/DX2 analytically  !
 ! A29   A(6,5,17)             109.0525         calculate D2E/DX2 analytically  !
 ! A30   A(11,5,17)            110.2373         calculate D2E/DX2 analytically  !
 ! A31   A(5,6,12)             111.9151         calculate D2E/DX2 analytically  !
 ! A32   A(5,6,23)             108.764          calculate D2E/DX2 analytically  !
 ! A33   A(5,6,24)             109.0604         calculate D2E/DX2 analytically  !
 ! A34   A(12,6,23)            112.1002         calculate D2E/DX2 analytically  !
 ! A35   A(12,6,24)            107.1403         calculate D2E/DX2 analytically  !
 ! A36   A(23,6,24)            107.7285         calculate D2E/DX2 analytically  !
 ! A37   A(1,7,18)             110.4716         calculate D2E/DX2 analytically  !
 ! A38   A(2,8,19)             107.4689         calculate D2E/DX2 analytically  !
 ! A39   A(2,8,25)             109.4139         calculate D2E/DX2 analytically  !
 ! A40   A(19,8,25)            135.1802         calculate D2E/DX2 analytically  !
 ! A41   A(3,9,20)             106.6867         calculate D2E/DX2 analytically  !
 ! A42   A(3,9,25)             109.3029         calculate D2E/DX2 analytically  !
 ! A43   A(20,9,25)            137.1809         calculate D2E/DX2 analytically  !
 ! A44   A(4,10,21)            109.8276         calculate D2E/DX2 analytically  !
 ! A45   A(1,11,5)             113.1476         calculate D2E/DX2 analytically  !
 ! A46   A(6,12,22)            109.1343         calculate D2E/DX2 analytically  !
 ! A47   A(8,25,9)              76.9204         calculate D2E/DX2 analytically  !
 ! D1    D(7,1,2,3)            178.6759         calculate D2E/DX2 analytically  !
 ! D2    D(7,1,2,8)            -61.0569         calculate D2E/DX2 analytically  !
 ! D3    D(7,1,2,14)            59.427          calculate D2E/DX2 analytically  !
 ! D4    D(11,1,2,3)            59.7938         calculate D2E/DX2 analytically  !
 ! D5    D(11,1,2,8)          -179.939          calculate D2E/DX2 analytically  !
 ! D6    D(11,1,2,14)          -59.4551         calculate D2E/DX2 analytically  !
 ! D7    D(13,1,2,3)           -60.5533         calculate D2E/DX2 analytically  !
 ! D8    D(13,1,2,8)            59.7139         calculate D2E/DX2 analytically  !
 ! D9    D(13,1,2,14)         -179.8022         calculate D2E/DX2 analytically  !
 ! D10   D(2,1,7,18)           175.7422         calculate D2E/DX2 analytically  !
 ! D11   D(11,1,7,18)          -66.1237         calculate D2E/DX2 analytically  !
 ! D12   D(13,1,7,18)           55.8848         calculate D2E/DX2 analytically  !
 ! D13   D(2,1,11,5)           -63.4833         calculate D2E/DX2 analytically  !
 ! D14   D(7,1,11,5)          -179.5274         calculate D2E/DX2 analytically  !
 ! D15   D(13,1,11,5)           57.2621         calculate D2E/DX2 analytically  !
 ! D16   D(1,2,3,4)            -58.1184         calculate D2E/DX2 analytically  !
 ! D17   D(1,2,3,9)            179.8677         calculate D2E/DX2 analytically  !
 ! D18   D(1,2,3,15)            60.7985         calculate D2E/DX2 analytically  !
 ! D19   D(8,2,3,4)           -179.8614         calculate D2E/DX2 analytically  !
 ! D20   D(8,2,3,9)             58.1248         calculate D2E/DX2 analytically  !
 ! D21   D(8,2,3,15)           -60.9444         calculate D2E/DX2 analytically  !
 ! D22   D(14,2,3,4)            59.3512         calculate D2E/DX2 analytically  !
 ! D23   D(14,2,3,9)           -62.6626         calculate D2E/DX2 analytically  !
 ! D24   D(14,2,3,15)          178.2682         calculate D2E/DX2 analytically  !
 ! D25   D(1,2,8,19)            44.2043         calculate D2E/DX2 analytically  !
 ! D26   D(1,2,8,25)          -161.7212         calculate D2E/DX2 analytically  !
 ! D27   D(3,2,8,19)           164.0598         calculate D2E/DX2 analytically  !
 ! D28   D(3,2,8,25)           -41.8657         calculate D2E/DX2 analytically  !
 ! D29   D(14,2,8,19)          -74.8835         calculate D2E/DX2 analytically  !
 ! D30   D(14,2,8,25)           79.1911         calculate D2E/DX2 analytically  !
 ! D31   D(2,3,4,5)             57.8617         calculate D2E/DX2 analytically  !
 ! D32   D(2,3,4,10)          -179.9406         calculate D2E/DX2 analytically  !
 ! D33   D(2,3,4,16)           -60.1562         calculate D2E/DX2 analytically  !
 ! D34   D(9,3,4,5)            178.4211         calculate D2E/DX2 analytically  !
 ! D35   D(9,3,4,10)           -59.3813         calculate D2E/DX2 analytically  !
 ! D36   D(9,3,4,16)            60.4032         calculate D2E/DX2 analytically  !
 ! D37   D(15,3,4,5)           -61.6394         calculate D2E/DX2 analytically  !
 ! D38   D(15,3,4,10)           60.5583         calculate D2E/DX2 analytically  !
 ! D39   D(15,3,4,16)         -179.6572         calculate D2E/DX2 analytically  !
 ! D40   D(2,3,9,20)           160.5825         calculate D2E/DX2 analytically  !
 ! D41   D(2,3,9,25)           -43.0188         calculate D2E/DX2 analytically  !
 ! D42   D(4,3,9,20)            40.3035         calculate D2E/DX2 analytically  !
 ! D43   D(4,3,9,25)          -163.2978         calculate D2E/DX2 analytically  !
 ! D44   D(15,3,9,20)          -79.7016         calculate D2E/DX2 analytically  !
 ! D45   D(15,3,9,25)           76.6972         calculate D2E/DX2 analytically  !
 ! D46   D(3,4,5,6)           -176.9593         calculate D2E/DX2 analytically  !
 ! D47   D(3,4,5,11)           -58.2881         calculate D2E/DX2 analytically  !
 ! D48   D(3,4,5,17)            61.9809         calculate D2E/DX2 analytically  !
 ! D49   D(10,4,5,6)            65.5952         calculate D2E/DX2 analytically  !
 ! D50   D(10,4,5,11)         -175.7336         calculate D2E/DX2 analytically  !
 ! D51   D(10,4,5,17)          -55.4646         calculate D2E/DX2 analytically  !
 ! D52   D(16,4,5,6)           -58.1805         calculate D2E/DX2 analytically  !
 ! D53   D(16,4,5,11)           60.4907         calculate D2E/DX2 analytically  !
 ! D54   D(16,4,5,17)         -179.2403         calculate D2E/DX2 analytically  !
 ! D55   D(3,4,10,21)          158.9031         calculate D2E/DX2 analytically  !
 ! D56   D(5,4,10,21)          -81.9908         calculate D2E/DX2 analytically  !
 ! D57   D(16,4,10,21)          40.21           calculate D2E/DX2 analytically  !
 ! D58   D(4,5,6,12)            49.8874         calculate D2E/DX2 analytically  !
 ! D59   D(4,5,6,23)           174.2875         calculate D2E/DX2 analytically  !
 ! D60   D(4,5,6,24)           -68.478          calculate D2E/DX2 analytically  !
 ! D61   D(11,5,6,12)          -69.3038         calculate D2E/DX2 analytically  !
 ! D62   D(11,5,6,23)           55.0963         calculate D2E/DX2 analytically  !
 ! D63   D(11,5,6,24)          172.3308         calculate D2E/DX2 analytically  !
 ! D64   D(17,5,6,12)          171.124          calculate D2E/DX2 analytically  !
 ! D65   D(17,5,6,23)          -64.4758         calculate D2E/DX2 analytically  !
 ! D66   D(17,5,6,24)           52.7586         calculate D2E/DX2 analytically  !
 ! D67   D(4,5,11,1)            62.5772         calculate D2E/DX2 analytically  !
 ! D68   D(6,5,11,1)          -175.9593         calculate D2E/DX2 analytically  !
 ! D69   D(17,5,11,1)          -57.1442         calculate D2E/DX2 analytically  !
 ! D70   D(5,6,12,22)           75.2183         calculate D2E/DX2 analytically  !
 ! D71   D(23,6,12,22)         -47.3009         calculate D2E/DX2 analytically  !
 ! D72   D(24,6,12,22)        -165.2809         calculate D2E/DX2 analytically  !
 ! D73   D(2,8,25,9)            14.7372         calculate D2E/DX2 analytically  !
 ! D74   D(19,8,25,9)          158.4633         calculate D2E/DX2 analytically  !
 ! D75   D(3,9,25,8)            15.9376         calculate D2E/DX2 analytically  !
 ! D76   D(20,9,25,8)          161.5877         calculate D2E/DX2 analytically  !
 --------------------------------------------------------------------------------
 Trust Radius=3.00D-01 FncErr=1.00D-07 GrdErr=1.00D-06
 Number of steps in this run=    150 maximum allowed number of steps=    150.
 GradGradGradGradGradGradGradGradGradGradGradGradGradGradGradGradGradGrad

                          Input orientation:                          
 ---------------------------------------------------------------------
 Center     Atomic      Atomic             Coordinates (Angstroms)
 Number     Number       Type             X           Y           Z
 ---------------------------------------------------------------------
      1          6           0       -0.040813    0.139806    0.112645
      2          6           0       -0.586652    1.562312    0.037940
      3          6           0       -0.130204    2.181915   -1.260408
      4          6           0        1.386980    2.155051   -1.307075
      5          6           0        1.858536    0.699411   -1.167882
      6          6           0        3.373776    0.590856   -1.130656
      7          8           0       -0.462331   -0.363391    1.327619
      8          8           0       -2.010632    1.580050    0.089615
      9          8           0       -0.634742    3.513003   -1.348534
     10          8           0        1.744082    2.744964   -2.534821
     11          8           0        1.359223    0.178513    0.059504
     12          8           0        3.940690    1.477480   -0.198126
     13          1           0       -0.425819   -0.460815   -0.731417
     14          1           0       -0.175512    2.118798    0.890869
     15          1           0       -0.521777    1.599199   -2.108460
     16          1           0        1.788629    2.728458   -0.461700
     17          1           0        1.476183    0.108699   -2.016454
     18          1           0       -0.208073   -1.288504    1.415677
     19          1           0       -2.283493    0.966794    0.785639
     20          1           0       -0.091409    3.973297   -2.003834
     21          1           0        2.653555    3.058487   -2.494229
     22          1           0        3.796694    1.135928    0.689625
     23          1           0        3.647781   -0.451084   -0.928432
     24          1           0        3.775238    0.856231   -2.113210
     25         11           0       -2.757188    3.541602   -0.676465
 ---------------------------------------------------------------------
                    Distance matrix (angstroms):
                    1          2          3          4          5
     1  C    0.000000
     2  C    1.525465   0.000000
     3  C    2.462412   1.509291   0.000000
     4  C    2.848756   2.460819   1.518139   0.000000
     5  C    2.358057   2.859641   2.482230   1.536433   0.000000
     6  C    3.661784   4.241973   3.850478   2.534795   1.519580
     7  O    1.380959   2.321004   3.645103   4.087067   3.569803
     8  O    2.440291   1.425028   2.391822   3.718217   4.162606
     9  O    3.723742   2.393704   1.426226   2.435798   3.763691
    10  O    4.120895   3.667436   2.335402   1.408148   2.462907
    11  O    1.401579   2.387843   2.823859   2.403125   1.423771
    12  O    4.211688   4.534286   4.265777   2.865363   2.425115
    13  H    1.105177   2.170442   2.711317   3.234251   2.599020
    14  H    2.130771   1.098272   2.152680   2.696971   3.223425
    15  H    2.700826   2.147697   1.100945   2.143488   2.712968
    16  H    3.221467   2.692860   2.149084   1.097623   2.149561
    17  H    2.614442   3.254046   2.729525   2.167656   1.102365
    18  H    1.940602   3.188829   4.383070   4.670722   3.859722
    19  H    2.483233   1.947554   3.209280   4.389052   4.587389
    20  H    4.379235   3.197961   1.939906   2.444816   3.901209
    21  H    4.751222   4.375998   3.168597   1.956973   2.820725
    22  H    4.006448   4.451990   4.507466   3.291222   2.719804
    23  H    3.877979   4.787281   4.616932   3.470811   2.140648
    24  H    4.475482   4.914477   4.211554   2.835589   2.142892
    25  Na   4.424207   3.023109   3.015093   4.415237   5.442835
                    6          7          8          9         10
     6  C    0.000000
     7  O    4.655042   0.000000
     8  O    5.608869   2.776122   0.000000
     9  O    4.965343   4.713592   2.774464   0.000000
    10  O    3.044300   5.426654   4.726792   2.766941   0.000000
    11  O    2.375906   2.284696   3.649813   4.132468   3.669511
    12  O    1.406096   5.010319   5.959157   5.138226   3.448441
    13  H    3.962616   2.061663   2.711246   4.026874   4.270569
    14  H    4.361034   2.536588   2.073626   2.677616   3.976465
    15  H    4.141037   3.957516   2.654918   2.062255   2.574622
    16  H    2.744000   4.222323   4.007140   2.697167   2.073665
    17  H    2.148947   3.894038   4.331083   4.060961   2.700068
    18  H    4.779691   0.963450   3.638167   5.556742   5.973793
    19  H    5.984832   2.319432   0.966946   3.708943   5.514409
    20  H    4.920453   5.481152   3.713970   0.967729   2.271514
    21  H    2.909854   6.002043   5.533233   3.511709   0.962853
    22  H    1.946635   4.560075   5.855108   5.426067   4.147200
    23  H    1.096181   4.689400   6.097505   5.850682   4.052071
    24  H    1.094079   5.593190   6.233189   5.204910   2.805470
    25  Na   6.819231   4.952948   2.234258   2.226493   4.934526
                   11         12         13         14         15
    11  O    0.000000
    12  O    2.901320   0.000000
    13  H    2.054427   4.807056   0.000000
    14  H    2.609844   4.305847   3.057592   0.000000
    15  H    3.202589   4.855698   2.479741   3.063635   0.000000
    16  H    2.637852   2.503155   3.892042   2.461499   3.053690
    17  H    2.080422   3.354649   2.365011   3.901426   2.494374
    18  H    2.539244   5.240922   2.311384   3.447636   4.566922
    19  H    3.797109   6.322108   2.791143   2.404531   3.446649
    20  H    4.556543   5.074200   4.625173   3.438829   2.415058
    21  H    4.060923   3.070568   4.997553   4.510601   3.515832
    22  H    2.693503   0.962026   4.732712   4.096944   5.166536
    23  H    2.570974   2.082907   4.078373   4.952951   4.793886
    24  H    3.319204   2.020117   4.614417   5.121230   4.360775
    25  Na   5.366270   7.025025   4.632240   3.338556   3.289468
                   16         17         18         19         20
    16  H    0.000000
    17  H    3.062355   0.000000
    18  H    4.862854   4.070432   0.000000
    19  H    4.608849   4.766887   3.129007   0.000000
    20  H    2.731729   4.170446   6.276401   4.650317   0.000000
    21  H    2.233426   3.211810   6.509425   6.285472   2.934654
    22  H    2.809631   3.709829   4.737423   6.083297   5.515680
    23  H    3.712650   2.492586   4.589524   6.334700   5.891789
    24  H    3.190507   2.419467   5.737569   6.717423   4.967799
    25  Na   4.622962   5.612649   5.848501   2.998628   3.009094
                   21         22         23         24         25
    21  H    0.000000
    22  H    3.891006   0.000000
    23  H    3.969546   2.271319   0.000000
    24  H    2.500656   2.816838   1.768903   0.000000
    25  Na   5.728334   7.113848   7.551732   7.207499   0.000000
 Symmetry turned off by external request.
 Stoichiometry    C6H12NaO6(1+)
 Framework group  C1[X(C6H12NaO6)]
 Deg. of freedom    69
 Full point group                 C1      NOp   1
 Rotational constants (GHZ):      1.0757565      0.5430126      0.3887085
 Standard basis: 6-31+G(2df,p) (6D, 7F)
 Integral buffers will be    131072 words long.
 Raffenetti 2 integral format.
 Two-electron integral symmetry is turned off.
   480 basis functions,   732 primitive gaussians,   519 cartesian basis functions
    53 alpha electrons       53 beta electrons
       nuclear repulsion energy       976.4027138875 Hartrees.
 NAtoms=   25 NActive=   25 NUniq=   25 SFac= 1.00D+00 NAtFMM=   50 NAOKFM=F Big=F
 One-electron integrals computed using PRISM.
 NBasis=   480 RedAO= T  NBF=   480
 NBsUse=   480 1.00D-06 NBFU=   480
 Harris functional with IExCor= 1009 diagonalized for initial guess.
 ExpMin= 7.60D-03 ExpMax= 9.99D+03 ExpMxC= 1.50D+03 IAcc=3 IRadAn=         0 AccDes= 0.00D+00
 HarFok:  IExCor= 1009 AccDes= 0.00D+00 IRadAn=         0 IDoV= 1
 ScaDFX=  1.000000  1.000000  1.000000  1.000000
 FoFCou: FMM=F IPFlag=           0 FMFlag=      100000 FMFlg1=           0
         NFxFlg=           0 DoJE=T BraDBF=F KetDBF=T FulRan=T
         Omega=  0.000000  0.000000  1.000000  0.000000  0.000000 ICntrl=     500 IOpCl=  0
         NMat0=    1 NMatS0=    1 NMatT0=    0 NMatD0=    1 NMtDS0=    0 NMtDT0=    0
         I1Cent=           4 NGrid=           0.
 Symmetry not used in FoFCou.
 Requested convergence on RMS density matrix=1.00D-08 within 128 cycles.
 Requested convergence on MAX density matrix=1.00D-06.
 Requested convergence on             energy=1.00D-06.
 No special actions if energy rises.
 SCF Done:  E(RM062X) =  -849.124051999     A.U. after   13 cycles
             Convg  =    0.2568D-08             -V/T =  2.0057
 QCSCF skips out because SCF is already converged.
 Range of M.O.s used for correlation:     1   480
 NBasis=   480 NAE=    53 NBE=    53 NFC=     0 NFV=     0
 NROrb=    480 NOA=    53 NOB=    53 NVA=   427 NVB=   427

 **** Warning!!: The largest alpha MO coefficient is  0.64468838D+02

 Symmetrizing basis deriv contribution to polar:
 IMax=3 JMax=2 DiffMx= 0.00D+00
 G2DrvN: will do    26 centers at a time, making    1 passes doing MaxLOS=3.
 Calling FoFCou, ICntrl=  3107 FMM=F I1Cent=   0 AccDes= 0.00D+00.
 FoFDir/FoFCou used for L=0 through L=3.
 End of G2Drv Frequency-dependent properties file   721 does not exist.
 End of G2Drv Frequency-dependent properties file   722 does not exist.
          IDoAtm=1111111111111111111111111
          Differentiating once with respect to electric field.
                with respect to dipole field.
          Differentiating once with respect to nuclear coordinates.
          There are    78 degrees of freedom in the 1st order CPHF.  IDoFFX=5.
     78 vectors produced by pass  0 Test12= 2.90D-14 1.28D-09 XBig12= 3.84D+01 8.24D-01.
 AX will form    78 AO Fock derivatives at one time.
     75 vectors produced by pass  1 Test12= 2.90D-14 1.28D-09 XBig12= 3.64D+00 1.76D-01.
     75 vectors produced by pass  2 Test12= 2.90D-14 1.28D-09 XBig12= 9.44D-02 2.63D-02.
     75 vectors produced by pass  3 Test12= 2.90D-14 1.28D-09 XBig12= 1.01D-03 3.15D-03.
     75 vectors produced by pass  4 Test12= 2.90D-14 1.28D-09 XBig12= 6.34D-06 1.80D-04.
     75 vectors produced by pass  5 Test12= 2.90D-14 1.28D-09 XBig12= 3.09D-08 1.70D-05.
     55 vectors produced by pass  6 Test12= 2.90D-14 1.28D-09 XBig12= 1.28D-10 8.30D-07.
      3 vectors produced by pass  7 Test12= 2.90D-14 1.28D-09 XBig12= 4.81D-13 5.09D-08.
      3 vectors produced by pass  8 Test12= 2.90D-14 1.28D-09 XBig12= 1.48D-14 1.10D-08.
 Inverted reduced A of dimension   514 with in-core refinement.
 Isotropic polarizability for W=    0.000000       93.74 Bohr**3.
 End of Minotr Frequency-dependent properties file   721 does not exist.
 End of Minotr Frequency-dependent properties file   722 does not exist.

 **********************************************************************

            Population analysis using the SCF density.

 **********************************************************************

 Alpha  occ. eigenvalues --  -39.34877 -19.81616 -19.81112 -19.78439 -19.78058
 Alpha  occ. eigenvalues --  -19.77757 -19.74416 -10.78808 -10.75106 -10.75066
 Alpha  occ. eigenvalues --  -10.73311 -10.72562 -10.70574  -2.59485  -1.47444
 Alpha  occ. eigenvalues --   -1.47435  -1.47341  -1.34968  -1.32698  -1.31485
 Alpha  occ. eigenvalues --   -1.28721  -1.27551  -1.25510  -1.03962  -1.00078
 Alpha  occ. eigenvalues --   -0.91705  -0.88419  -0.83945  -0.81254  -0.77347
 Alpha  occ. eigenvalues --   -0.76317  -0.75812  -0.73111  -0.72240  -0.70126
 Alpha  occ. eigenvalues --   -0.68308  -0.67119  -0.65007  -0.63744  -0.63083
 Alpha  occ. eigenvalues --   -0.62521  -0.60397  -0.58913  -0.58308  -0.55542
 Alpha  occ. eigenvalues --   -0.55274  -0.52962  -0.52476  -0.51538  -0.51089
 Alpha  occ. eigenvalues --   -0.49747  -0.46934  -0.45371
 Alpha virt. eigenvalues --   -0.16683  -0.11250  -0.11071  -0.10086  -0.08529
 Alpha virt. eigenvalues --   -0.07534  -0.07434  -0.06697  -0.06209  -0.04837
 Alpha virt. eigenvalues --   -0.04617  -0.04402  -0.04108  -0.03710  -0.03495
 Alpha virt. eigenvalues --   -0.03040  -0.02066  -0.01083  -0.00712  -0.00331
 Alpha virt. eigenvalues --    0.00385   0.00687   0.00851   0.01201   0.01720
 Alpha virt. eigenvalues --    0.02476   0.02963   0.03427   0.04139   0.05034
 Alpha virt. eigenvalues --    0.05245   0.05952   0.06541   0.07227   0.07515
 Alpha virt. eigenvalues --    0.08212   0.08464   0.08906   0.09732   0.10070
 Alpha virt. eigenvalues --    0.10555   0.11493   0.12102   0.12745   0.12846
 Alpha virt. eigenvalues --    0.13377   0.13840   0.14125   0.14548   0.15149
 Alpha virt. eigenvalues --    0.15572   0.16269   0.17078   0.17666   0.17902
 Alpha virt. eigenvalues --    0.18393   0.18572   0.19009   0.19139   0.20146
 Alpha virt. eigenvalues --    0.20647   0.21433   0.21683   0.22329   0.22622
 Alpha virt. eigenvalues --    0.23480   0.23866   0.24291   0.24402   0.25264
 Alpha virt. eigenvalues --    0.25499   0.25760   0.26738   0.27333   0.28161
 Alpha virt. eigenvalues --    0.29137   0.29773   0.29989   0.30503   0.30932
 Alpha virt. eigenvalues --    0.31515   0.32621   0.33330   0.33689   0.34912
 Alpha virt. eigenvalues --    0.35240   0.36651   0.37962   0.39592   0.41397
 Alpha virt. eigenvalues --    0.44708   0.47440   0.48172   0.49715   0.50759
 Alpha virt. eigenvalues --    0.51266   0.52443   0.54309   0.56208   0.57437
 Alpha virt. eigenvalues --    0.57632   0.58676   0.59603   0.60908   0.62493
 Alpha virt. eigenvalues --    0.62684   0.63658   0.64548   0.65999   0.67538
 Alpha virt. eigenvalues --    0.71081   0.71470   0.71982   0.73551   0.74943
 Alpha virt. eigenvalues --    0.75827   0.76149   0.77222   0.78170   0.78940
 Alpha virt. eigenvalues --    0.79466   0.80277   0.81224   0.82567   0.83564
 Alpha virt. eigenvalues --    0.84674   0.85819   0.86533   0.87049   0.87544
 Alpha virt. eigenvalues --    0.88203   0.89552   0.89750   0.91237   0.92310
 Alpha virt. eigenvalues --    0.92749   0.94105   0.95399   0.96807   0.97669
 Alpha virt. eigenvalues --    0.99414   0.99795   1.00967   1.02070   1.03086
 Alpha virt. eigenvalues --    1.04517   1.05797   1.06619   1.07532   1.08094
 Alpha virt. eigenvalues --    1.09220   1.10425   1.11841   1.12981   1.14659
 Alpha virt. eigenvalues --    1.16364   1.16457   1.16963   1.17609   1.18240
 Alpha virt. eigenvalues --    1.19145   1.19579   1.21265   1.22019   1.25016
 Alpha virt. eigenvalues --    1.25062   1.27621   1.28236   1.28508   1.30156
 Alpha virt. eigenvalues --    1.32164   1.33485   1.34410   1.36285   1.37839
 Alpha virt. eigenvalues --    1.39181   1.41179   1.42349   1.43775   1.44691
 Alpha virt. eigenvalues --    1.45888   1.48100   1.48953   1.50932   1.53069
 Alpha virt. eigenvalues --    1.54743   1.56054   1.58103   1.59009   1.59924
 Alpha virt. eigenvalues --    1.60647   1.61624   1.63079   1.63666   1.65099
 Alpha virt. eigenvalues --    1.67186   1.69991   1.73322   1.74372   1.76312
 Alpha virt. eigenvalues --    1.77527   1.79119   1.81101   1.86290   1.87036
 Alpha virt. eigenvalues --    1.88029   1.88578   1.90991   1.91435   1.92892
 Alpha virt. eigenvalues --    1.96414   1.98727   2.02468   2.03014   2.07900
 Alpha virt. eigenvalues --    2.10204   2.14558   2.16835   2.19536   2.22810
 Alpha virt. eigenvalues --    2.23030   2.25128   2.31171   2.34347   2.39263
 Alpha virt. eigenvalues --    2.39913   2.41717   2.43543   2.44582   2.46394
 Alpha virt. eigenvalues --    2.48499   2.49785   2.51513   2.52517   2.53177
 Alpha virt. eigenvalues --    2.54977   2.56750   2.59741   2.63991   2.66461
 Alpha virt. eigenvalues --    2.67178   2.70004   2.71589   2.73326   2.74054
 Alpha virt. eigenvalues --    2.74647   2.77066   2.78358   2.81382   2.82275
 Alpha virt. eigenvalues --    2.85087   2.87746   2.89697   2.93310   2.93507
 Alpha virt. eigenvalues --    2.94420   2.96341   2.98208   2.99108   3.00490
 Alpha virt. eigenvalues --    3.01454   3.03857   3.05162   3.07817   3.11155
 Alpha virt. eigenvalues --    3.13039   3.15111   3.17928   3.18230   3.20843
 Alpha virt. eigenvalues --    3.24972   3.25784   3.26950   3.29227   3.30157
 Alpha virt. eigenvalues --    3.33322   3.35960   3.40232   3.44746   3.46488
 Alpha virt. eigenvalues --    3.47250   3.49713   3.54643   3.55056   3.57208
 Alpha virt. eigenvalues --    3.59353   3.59735   3.63449   3.71383   3.73032
 Alpha virt. eigenvalues --    3.74021   3.78588   3.79767   3.85588   3.89325
 Alpha virt. eigenvalues --    3.92466   3.97186   4.06659   4.09079   4.11726
 Alpha virt. eigenvalues --    4.13317   4.14823   4.15423   4.16948   4.19778
 Alpha virt. eigenvalues --    4.20871   4.21217   4.23598   4.26384   4.28503
 Alpha virt. eigenvalues --    4.28854   4.29540   4.32782   4.34740   4.35580
 Alpha virt. eigenvalues --    4.36836   4.37886   4.39594   4.40583   4.40919
 Alpha virt. eigenvalues --    4.43556   4.44379   4.45309   4.46258   4.48615
 Alpha virt. eigenvalues --    4.50050   4.50522   4.51512   4.52130   4.53111
 Alpha virt. eigenvalues --    4.54146   4.55477   4.57224   4.58572   4.59338
 Alpha virt. eigenvalues --    4.60314   4.60925   4.62072   4.64127   4.64595
 Alpha virt. eigenvalues --    4.66154   4.68865   4.70732   4.71813   4.74532
 Alpha virt. eigenvalues --    4.76626   4.78650   4.79603   4.81218   4.82478
 Alpha virt. eigenvalues --    4.83351   4.87600   4.89924   4.91477   4.94088
 Alpha virt. eigenvalues --    4.95357   4.96629   5.00226   5.05831   5.07280
 Alpha virt. eigenvalues --    5.12519   5.13793   5.15800   5.16549   5.20587
 Alpha virt. eigenvalues --    5.22220   5.22847   5.26037   5.28048   5.29367
 Alpha virt. eigenvalues --    5.29830   5.31254   5.32312   5.34050   5.36327
 Alpha virt. eigenvalues --    5.37520   5.38718   5.40397   5.44415   5.46777
 Alpha virt. eigenvalues --    5.47233   5.48459   5.55059   5.58079   5.62790
 Alpha virt. eigenvalues --    5.68276   5.70232   5.72434   5.74812   5.75313
 Alpha virt. eigenvalues --    5.81774   5.83166   5.85966   5.86529   5.86696
 Alpha virt. eigenvalues --    5.88842   5.91652   5.94691   5.95268   5.96028
 Alpha virt. eigenvalues --    5.97384   6.00057   6.01981   6.04159   6.10072
 Alpha virt. eigenvalues --    6.18138   6.29623   6.82962   7.02630   7.04964
 Alpha virt. eigenvalues --    7.13737   7.23020   7.29267   7.34740   7.90015
 Alpha virt. eigenvalues --   11.81322  12.13547  12.32103  12.65911  12.91502
 Alpha virt. eigenvalues --   13.20301  13.36469  13.42890  13.53297  13.70725
 Alpha virt. eigenvalues --   13.72395  13.94001
          Condensed to atoms (all electrons):
              1          2          3          4          5          6
     1  C    5.206634   0.208624  -0.072237   0.088232  -0.329421  -0.008110
     2  C    0.208624   5.490343   0.377423  -0.360246   0.054460  -0.019399
     3  C   -0.072237   0.377423   5.850720  -0.415787   0.100286  -0.246694
     4  C    0.088232  -0.360246  -0.415787   6.378682  -0.157160   0.141766
     5  C   -0.329421   0.054460   0.100286  -0.157160   6.020979  -0.145262
     6  C   -0.008110  -0.019399  -0.246694   0.141766  -0.145262   5.672031
     7  O    0.249622  -0.051920  -0.016016   0.024481  -0.005457   0.001668
     8  O   -0.035081   0.224446  -0.112268   0.014475  -0.010542   0.001652
     9  O    0.012028  -0.105137   0.247979  -0.006829  -0.009688   0.000117
    10  O    0.012185   0.002099  -0.108778   0.311547  -0.058546  -0.012881
    11  O    0.219477  -0.067969   0.016884  -0.093278   0.250467  -0.048831
    12  O   -0.000920  -0.011976   0.005057   0.054069  -0.036576   0.168157
    13  H    0.346495  -0.044178   0.033930  -0.030641   0.029739   0.007780
    14  H   -0.003422   0.355598  -0.039473   0.003877   0.005817   0.008001
    15  H   -0.028283  -0.018466   0.382875  -0.031577   0.007663   0.005525
    16  H   -0.001258   0.013237   0.022675   0.317293  -0.031876  -0.006743
    17  H    0.025935  -0.022646   0.038788  -0.046819   0.299711   0.012578
    18  H   -0.042746   0.025897   0.008738  -0.005505  -0.000173  -0.002205
    19  H   -0.002281  -0.028537   0.006879   0.000832   0.000807   0.000166
    20  H   -0.000985   0.010652  -0.016392  -0.022959   0.006820  -0.000053
    21  H   -0.000125   0.001183   0.006151  -0.005047  -0.017116  -0.001765
    22  H    0.004571  -0.000191  -0.002106  -0.015988  -0.020697   0.013167
    23  H   -0.006709  -0.001490  -0.005186   0.039037  -0.077909   0.420138
    24  H    0.003618   0.001905   0.001303  -0.048189  -0.035641   0.448572
    25  Na  -0.005418  -0.035354  -0.013128  -0.011845  -0.000886  -0.002192
              7          8          9         10         11         12
     1  C    0.249622  -0.035081   0.012028   0.012185   0.219477  -0.000920
     2  C   -0.051920   0.224446  -0.105137   0.002099  -0.067969  -0.011976
     3  C   -0.016016  -0.112268   0.247979  -0.108778   0.016884   0.005057
     4  C    0.024481   0.014475  -0.006829   0.311547  -0.093278   0.054069
     5  C   -0.005457  -0.010542  -0.009688  -0.058546   0.250467  -0.036576
     6  C    0.001668   0.001652   0.000117  -0.012881  -0.048831   0.168157
     7  O    8.061807  -0.014140   0.000060  -0.000280  -0.004579   0.000587
     8  O   -0.014140   8.161961   0.017864  -0.000546   0.003785  -0.000156
     9  O    0.000060   0.017864   8.128805  -0.020995  -0.002205  -0.000224
    10  O   -0.000280  -0.000546  -0.020995   8.105664   0.003927  -0.009439
    11  O   -0.004579   0.003785  -0.002205   0.003927   7.999441  -0.002821
    12  O    0.000587  -0.000156  -0.000224  -0.009439  -0.002821   8.054484
    13  H   -0.026118   0.004372   0.000212  -0.000236  -0.032453  -0.000224
    14  H   -0.003929  -0.032115   0.003715   0.000357   0.002258  -0.000102
    15  H    0.000592   0.003944  -0.033889  -0.002948   0.003949  -0.000014
    16  H   -0.000204   0.000683   0.002216  -0.021054   0.007234  -0.007331
    17  H    0.000511   0.000005  -0.000231  -0.000772  -0.017128   0.004085
    18  H    0.288215  -0.000071   0.000004  -0.000001   0.001769   0.000046
    19  H    0.015085   0.288341  -0.000359   0.000001   0.000394   0.000000
    20  H    0.000003  -0.000489   0.281730   0.019667  -0.000016   0.000064
    21  H   -0.000003   0.000003   0.000466   0.292545  -0.000707   0.001882
    22  H    0.000030  -0.000001  -0.000007   0.000541   0.006629   0.288171
    23  H    0.000221   0.000001  -0.000026  -0.001446  -0.004185  -0.018140
    24  H   -0.000017  -0.000006  -0.000026   0.007293   0.004572  -0.044935
    25  Na   0.000139   0.075440   0.085007   0.000066  -0.000296  -0.000127
             13         14         15         16         17         18
     1  C    0.346495  -0.003422  -0.028283  -0.001258   0.025935  -0.042746
     2  C   -0.044178   0.355598  -0.018466   0.013237  -0.022646   0.025897
     3  C    0.033930  -0.039473   0.382875   0.022675   0.038788   0.008738
     4  C   -0.030641   0.003877  -0.031577   0.317293  -0.046819  -0.005505
     5  C    0.029739   0.005817   0.007663  -0.031876   0.299711  -0.000173
     6  C    0.007780   0.008001   0.005525  -0.006743   0.012578  -0.002205
     7  O   -0.026118  -0.003929   0.000592  -0.000204   0.000511   0.288215
     8  O    0.004372  -0.032115   0.003944   0.000683   0.000005  -0.000071
     9  O    0.000212   0.003715  -0.033889   0.002216  -0.000231   0.000004
    10  O   -0.000236   0.000357  -0.002948  -0.021054  -0.000772  -0.000001
    11  O   -0.032453   0.002258   0.003949   0.007234  -0.017128   0.001769
    12  O   -0.000224  -0.000102  -0.000014  -0.007331   0.004085   0.000046
    13  H    0.548175   0.003151   0.000285  -0.000103   0.002414  -0.004859
    14  H    0.003151   0.503221   0.003378  -0.000385  -0.000103  -0.000143
    15  H    0.000285   0.003378   0.520447   0.003479   0.000716  -0.000001
    16  H   -0.000103  -0.000385   0.003479   0.510508   0.003537   0.000002
    17  H    0.002414  -0.000103   0.000716   0.003537   0.541450  -0.000013
    18  H   -0.004859  -0.000143  -0.000001   0.000002  -0.000013   0.340414
    19  H    0.000005  -0.001517  -0.000062   0.000004   0.000002  -0.000590
    20  H    0.000002  -0.000065  -0.000772  -0.000397   0.000008   0.000000
    21  H    0.000002   0.000008  -0.000091  -0.007056  -0.000072   0.000000
    22  H    0.000001   0.000005   0.000000   0.000067  -0.000067   0.000000
    23  H   -0.000005   0.000001  -0.000004  -0.000116  -0.001190  -0.000003
    24  H   -0.000003   0.000000  -0.000008   0.000029  -0.001203   0.000000
    25  Na   0.000463  -0.000209   0.001395   0.000697   0.000559   0.000088
             19         20         21         22         23         24
     1  C   -0.002281  -0.000985  -0.000125   0.004571  -0.006709   0.003618
     2  C   -0.028537   0.010652   0.001183  -0.000191  -0.001490   0.001905
     3  C    0.006879  -0.016392   0.006151  -0.002106  -0.005186   0.001303
     4  C    0.000832  -0.022959  -0.005047  -0.015988   0.039037  -0.048189
     5  C    0.000807   0.006820  -0.017116  -0.020697  -0.077909  -0.035641
     6  C    0.000166  -0.000053  -0.001765   0.013167   0.420138   0.448572
     7  O    0.015085   0.000003  -0.000003   0.000030   0.000221  -0.000017
     8  O    0.288341  -0.000489   0.000003  -0.000001   0.000001  -0.000006
     9  O   -0.000359   0.281730   0.000466  -0.000007  -0.000026  -0.000026
    10  O    0.000001   0.019667   0.292545   0.000541  -0.001446   0.007293
    11  O    0.000394  -0.000016  -0.000707   0.006629  -0.004185   0.004572
    12  O    0.000000   0.000064   0.001882   0.288171  -0.018140  -0.044935
    13  H    0.000005   0.000002   0.000002   0.000001  -0.000005  -0.000003
    14  H   -0.001517  -0.000065   0.000008   0.000005   0.000001   0.000000
    15  H   -0.000062  -0.000772  -0.000091   0.000000  -0.000004  -0.000008
    16  H    0.000004  -0.000397  -0.007056   0.000067  -0.000116   0.000029
    17  H    0.000002   0.000008  -0.000072  -0.000067  -0.001190  -0.001203
    18  H   -0.000590   0.000000   0.000000   0.000000  -0.000003   0.000000
    19  H    0.313188   0.000014   0.000000   0.000000   0.000000   0.000000
    20  H    0.000014   0.312893  -0.000934   0.000000   0.000000   0.000001
    21  H    0.000000  -0.000934   0.340090  -0.000033   0.000065  -0.000880
    22  H    0.000000   0.000000  -0.000033   0.356328  -0.007179   0.004488
    23  H    0.000000   0.000000   0.000065  -0.007179   0.502551  -0.025089
    24  H    0.000000   0.000001  -0.000880   0.004488  -0.025089   0.501146
    25  Na  -0.011357  -0.011818   0.000056   0.000027   0.000024   0.000059
             25
     1  C   -0.005418
     2  C   -0.035354
     3  C   -0.013128
     4  C   -0.011845
     5  C   -0.000886
     6  C   -0.002192
     7  O    0.000139
     8  O    0.075440
     9  O    0.085007
    10  O    0.000066
    11  O   -0.000296
    12  O   -0.000127
    13  H    0.000463
    14  H   -0.000209
    15  H    0.001395
    16  H    0.000697
    17  H    0.000559
    18  H    0.000088
    19  H   -0.011357
    20  H   -0.011818
    21  H    0.000056
    22  H    0.000027
    23  H    0.000024
    24  H    0.000059
    25  Na  10.005369
 Mulliken atomic charges:
              1
     1  C    0.159575
     2  C    0.001643
     3  C   -0.051622
     4  C   -0.122421
     5  C    0.160203
     6  C   -0.407182
     7  O   -0.520358
     8  O   -0.591557
     9  O   -0.600586
    10  O   -0.517970
    11  O   -0.246317
    12  O   -0.443618
    13  H    0.161796
    14  H    0.192077
    15  H    0.181868
    16  H    0.194862
    17  H    0.159947
    18  H    0.391136
    19  H    0.418986
    20  H    0.423024
    21  H    0.391376
    22  H    0.372246
    23  H    0.186636
    24  H    0.183012
    25  Na   0.923242
 Sum of Mulliken atomic charges =   1.00000
 Mulliken charges with hydrogens summed into heavy atoms:
              1
     1  C    0.321371
     2  C    0.193720
     3  C    0.130246
     4  C    0.072441
     5  C    0.320150
     6  C   -0.037534
     7  O   -0.129221
     8  O   -0.172570
     9  O   -0.177562
    10  O   -0.126593
    11  O   -0.246317
    12  O   -0.071372
    25  Na   0.923242
 Sum of Mulliken charges with hydrogens summed into heavy atoms =   1.00000
 APT atomic charges:
              1
     1  C    0.902799
     2  C    0.376639
     3  C    0.422790
     4  C    0.357077
     5  C    0.386811
     6  C    0.443474
     7  O   -0.684653
     8  O   -0.718475
     9  O   -0.732424
    10  O   -0.630829
    11  O   -0.806287
    12  O   -0.610955
    13  H   -0.070766
    14  H   -0.017305
    15  H   -0.032822
    16  H   -0.004911
    17  H   -0.041386
    18  H    0.319512
    19  H    0.331877
    20  H    0.332607
    21  H    0.300872
    22  H    0.291441
    23  H   -0.023825
    24  H    0.000676
    25  Na   0.908065
 Sum of APT charges=   1.00000
 APT Atomic charges with hydrogens summed into heavy atoms:
              1
     1  C    0.832033
     2  C    0.359334
     3  C    0.389967
     4  C    0.352166
     5  C    0.345424
     6  C    0.420325
     7  O   -0.365142
     8  O   -0.386598
     9  O   -0.399817
    10  O   -0.329957
    11  O   -0.806287
    12  O   -0.319514
    13  H    0.000000
    14  H    0.000000
    15  H    0.000000
    16  H    0.000000
    17  H    0.000000
    18  H    0.000000
    19  H    0.000000
    20  H    0.000000
    21  H    0.000000
    22  H    0.000000
    23  H    0.000000
    24  H    0.000000
    25  Na   0.908065
 Sum of APT charges=   1.00000
 Electronic spatial extent (au):  <R**2>=           3858.8508
 Charge=              1.0000 electrons
 Dipole moment (field-independent basis, Debye):
    X=             -7.0385    Y=             11.4110    Z=             -3.2846  Tot=             13.8036
 Quadrupole moment (field-independent basis, Debye-Ang):
   XX=            -38.8942   YY=            -22.6430   ZZ=            -67.7000
   XY=            -31.5597   XZ=              0.8016   YZ=            -12.8812
 Traceless Quadrupole moment (field-independent basis, Debye-Ang):
   XX=              4.1849   YY=             20.4360   ZZ=            -24.6209
   XY=            -31.5597   XZ=              0.8016   YZ=            -12.8812
 Octapole moment (field-independent basis, Debye-Ang**2):
  XXX=           -230.0578  YYY=           -142.1515  ZZZ=            138.3471  XYY=           -164.8123
  XXY=             -3.2680  XXZ=             18.7406  XZZ=            -38.2914  YZZ=            -94.0699
  YYZ=              1.8696  XYZ=             12.1785
 Hexadecapole moment (field-independent basis, Debye-Ang**3):
 XXXX=          -1569.0129 YYYY=           -953.2787 ZZZZ=           -716.7083 XXXY=           -443.3181
 XXXZ=            223.7208 YYYX=           -510.3786 YYYZ=            150.2645 ZZZX=            206.2708
 ZZZY=            349.0437 XXYY=           -168.8285 XXZZ=           -316.5418 YYZZ=           -313.6282
 XXYZ=             15.4141 YYXZ=            114.6795 ZZXY=            -13.9840
 N-N= 9.764027138875D+02 E-N=-3.939402811319D+03  KE= 8.443528211313D+02
  Exact polarizability: 102.459  -2.407  90.855  -6.324  -7.315  87.903
 Approx polarizability: 109.370   1.017 106.656  -2.421  -3.007 109.241
 Calling FoFJK, ICntrl=    100127 FMM=F ISym2X=0 I1Cent= 0 IOpClX= 0 NMat=1 NMatS=1 NMatT=0.
 -------------------------------------------------------------------
 Center     Atomic                   Forces (Hartrees/Bohr)
 Number     Number              X              Y              Z
 -------------------------------------------------------------------
      1        6          -0.000031494   -0.000000210    0.000011166
      2        6          -0.000035180   -0.000034721    0.000018652
      3        6          -0.000022107    0.000047344   -0.000023496
      4        6           0.000002733   -0.000052019    0.000026418
      5        6          -0.000018834    0.000023390    0.000028681
      6        6          -0.000000432   -0.000020973   -0.000027412
      7        8           0.000010330   -0.000004023   -0.000021967
      8        8           0.000032757   -0.000004942   -0.000001360
      9        8           0.000014304   -0.000036830    0.000009198
     10        8          -0.000007680    0.000026432   -0.000013654
     11        8           0.000042924   -0.000002504   -0.000023360
     12        8           0.000010748    0.000035036    0.000021973
     13        1           0.000012416   -0.000003665   -0.000004282
     14        1           0.000000752   -0.000003292    0.000002113
     15        1          -0.000000405   -0.000010106    0.000000404
     16        1          -0.000012017    0.000016758    0.000001212
     17        1           0.000000161    0.000006236   -0.000006229
     18        1           0.000010323    0.000000425   -0.000001817
     19        1          -0.000007894   -0.000012838   -0.000000543
     20        1          -0.000017842    0.000009988   -0.000001834
     21        1          -0.000001437    0.000004045    0.000000483
     22        1          -0.000000421    0.000007400    0.000000353
     23        1           0.000009096    0.000021662    0.000001864
     24        1           0.000007944    0.000015875    0.000011112
     25       11           0.000001254   -0.000028466   -0.000007676
 -------------------------------------------------------------------
 Cartesian Forces:  Max     0.000052019 RMS     0.000018453

 GradGradGradGradGradGradGradGradGradGradGradGradGradGradGradGradGradGrad
 Berny optimization.
 Internal  Forces:  Max     0.000027987 RMS     0.000007148
 Search for a local minimum.
 Step number   1 out of a maximum of  150
 All quantities printed in internal units (Hartrees-Bohrs-Radians)
 Mixed Optimization -- En-DIIS/RFO-DIIS
 Second derivative matrix not updated -- analytic derivatives used.
 ITU=  0
     Eigenvalues ---    0.00144   0.00250   0.00427   0.00447   0.00468
     Eigenvalues ---    0.00562   0.00651   0.00725   0.00879   0.01043
     Eigenvalues ---    0.02106   0.02284   0.02705   0.03097   0.03787
     Eigenvalues ---    0.04112   0.04359   0.04565   0.04858   0.04893
     Eigenvalues ---    0.05067   0.05206   0.05607   0.05756   0.05983
     Eigenvalues ---    0.06086   0.06293   0.06876   0.07155   0.07552
     Eigenvalues ---    0.09058   0.10156   0.10503   0.10679   0.12040
     Eigenvalues ---    0.14065   0.14564   0.15729   0.16160   0.16833
     Eigenvalues ---    0.17729   0.18789   0.19945   0.20690   0.22422
     Eigenvalues ---    0.24322   0.25906   0.27803   0.29081   0.31324
     Eigenvalues ---    0.31678   0.32069   0.32433   0.32847   0.33839
     Eigenvalues ---    0.33997   0.34453   0.34800   0.34885   0.35207
     Eigenvalues ---    0.36533   0.41677   0.41971   0.45623   0.51628
     Eigenvalues ---    0.52023   0.53792   0.54021   0.54354
 RFO step:  Lambda=-1.29079604D-07 EMin= 1.43702324D-03
 Linear search not attempted -- first point.
 Iteration  1 RMS(Cart)=  0.00055674 RMS(Int)=  0.00000056
 Iteration  2 RMS(Cart)=  0.00000045 RMS(Int)=  0.00000017
 Variable       Old X    -DE/DX   Delta X   Delta X   Delta X     New X
                                 (Linear)    (Quad)   (Total)
    R1        2.88271  -0.00001   0.00000  -0.00004  -0.00004   2.88267
    R2        2.60963  -0.00002   0.00000  -0.00007  -0.00007   2.60956
    R3        2.64860   0.00002   0.00000   0.00010   0.00010   2.64870
    R4        2.08848   0.00000   0.00000   0.00000   0.00000   2.08848
    R5        2.85215   0.00002   0.00000   0.00010   0.00010   2.85224
    R6        2.69291  -0.00003   0.00000  -0.00010  -0.00010   2.69281
    R7        2.07543   0.00000   0.00000   0.00000   0.00000   2.07544
    R8        2.86887   0.00000   0.00000   0.00000   0.00000   2.86887
    R9        2.69518  -0.00003   0.00000  -0.00013  -0.00013   2.69504
   R10        2.08048   0.00000   0.00000   0.00003   0.00003   2.08051
   R11        2.90344  -0.00002   0.00000  -0.00010  -0.00010   2.90334
   R12        2.66101   0.00002   0.00000   0.00009   0.00009   2.66111
   R13        2.07421   0.00000   0.00000   0.00001   0.00001   2.07422
   R14        2.87159   0.00001   0.00000   0.00004   0.00004   2.87163
   R15        2.69054  -0.00002   0.00000  -0.00009  -0.00009   2.69045
   R16        2.08317   0.00001   0.00000   0.00003   0.00003   2.08319
   R17        2.65714   0.00003   0.00000   0.00009   0.00009   2.65723
   R18        2.07148  -0.00001   0.00000  -0.00003  -0.00003   2.07145
   R19        2.06751  -0.00001   0.00000  -0.00002  -0.00002   2.06749
   R20        1.82066  -0.00001   0.00000  -0.00001  -0.00001   1.82065
   R21        1.82726   0.00000   0.00000   0.00000   0.00000   1.82726
   R22        4.22214  -0.00001   0.00000  -0.00057  -0.00057   4.22156
   R23        1.82874   0.00000   0.00000   0.00001   0.00001   1.82875
   R24        4.20746  -0.00001   0.00000  -0.00001  -0.00001   4.20745
   R25        1.81953   0.00000   0.00000   0.00000   0.00000   1.81953
   R26        1.81797   0.00000   0.00000   0.00000   0.00000   1.81797
    A1        1.84799   0.00000   0.00000  -0.00001  -0.00001   1.84798
    A2        1.90690   0.00000   0.00000   0.00004   0.00004   1.90694
    A3        1.92275   0.00000   0.00000   0.00002   0.00002   1.92277
    A4        1.92658   0.00000   0.00000  -0.00002  -0.00002   1.92656
    A5        1.94720   0.00000   0.00000   0.00005   0.00005   1.94725
    A6        1.91138   0.00000   0.00000  -0.00007  -0.00007   1.91130
    A7        1.89308   0.00000   0.00000  -0.00003  -0.00003   1.89305
    A8        1.94699   0.00000   0.00000   0.00000   0.00000   1.94699
    A9        1.87603   0.00000   0.00000   0.00005   0.00005   1.87608
   A10        1.90529   0.00000   0.00000  -0.00003  -0.00003   1.90525
   A11        1.92500   0.00000   0.00000  -0.00003  -0.00003   1.92497
   A12        1.91730   0.00000   0.00000   0.00004   0.00004   1.91734
   A13        1.89802  -0.00001   0.00000  -0.00006  -0.00006   1.89796
   A14        1.90637   0.00001   0.00000   0.00005   0.00005   1.90642
   A15        1.91536   0.00000   0.00000  -0.00007  -0.00007   1.91529
   A16        1.94782   0.00000   0.00000   0.00003   0.00003   1.94785
   A17        1.89906   0.00000   0.00000  -0.00005  -0.00005   1.89901
   A18        1.89712   0.00000   0.00000   0.00009   0.00009   1.89721
   A19        1.89727   0.00001   0.00000   0.00006   0.00006   1.89733
   A20        1.84713  -0.00001   0.00000  -0.00012  -0.00012   1.84701
   A21        1.91004   0.00000   0.00000  -0.00006  -0.00006   1.90998
   A22        1.98019   0.00000   0.00000  -0.00001  -0.00001   1.98018
   A23        1.88899   0.00000   0.00000   0.00018   0.00018   1.88918
   A24        1.93892   0.00000   0.00000  -0.00006  -0.00006   1.93886
   A25        1.95621   0.00000   0.00000   0.00003   0.00003   1.95624
   A26        1.89345   0.00001   0.00000   0.00011   0.00011   1.89356
   A27        1.90868  -0.00001   0.00000  -0.00012  -0.00012   1.90856
   A28        1.87805  -0.00001   0.00000  -0.00009  -0.00009   1.87796
   A29        1.90333   0.00001   0.00000   0.00004   0.00004   1.90337
   A30        1.92400   0.00000   0.00000   0.00003   0.00003   1.92404
   A31        1.95329   0.00000   0.00000  -0.00008  -0.00008   1.95320
   A32        1.89829   0.00000   0.00000   0.00003   0.00003   1.89832
   A33        1.90346   0.00001   0.00000   0.00013   0.00013   1.90359
   A34        1.95652   0.00000   0.00000  -0.00005  -0.00005   1.95647
   A35        1.86995   0.00000   0.00000  -0.00004  -0.00004   1.86991
   A36        1.88022   0.00000   0.00000   0.00002   0.00002   1.88024
   A37        1.92809   0.00000   0.00000   0.00003   0.00003   1.92812
   A38        1.87569   0.00001   0.00000   0.00012   0.00012   1.87581
   A39        1.90963   0.00000   0.00000   0.00048   0.00048   1.91011
   A40        2.35934   0.00000   0.00000   0.00014   0.00014   2.35948
   A41        1.86203   0.00001   0.00000   0.00015   0.00015   1.86219
   A42        1.90770  -0.00001   0.00000  -0.00055  -0.00055   1.90714
   A43        2.39426  -0.00001   0.00000  -0.00043  -0.00043   2.39383
   A44        1.91685   0.00000   0.00000   0.00001   0.00001   1.91687
   A45        1.97480   0.00000   0.00000   0.00003   0.00003   1.97483
   A46        1.90475  -0.00001   0.00000  -0.00008  -0.00008   1.90468
   A47        1.34251   0.00000   0.00000   0.00009   0.00009   1.34260
    D1        3.11848   0.00000   0.00000   0.00002   0.00002   3.11850
    D2       -1.06564   0.00000   0.00000  -0.00004  -0.00004  -1.06569
    D3        1.03720   0.00000   0.00000   0.00004   0.00004   1.03724
    D4        1.04360   0.00000   0.00000   0.00003   0.00003   1.04363
    D5       -3.14053   0.00000   0.00000  -0.00003  -0.00003  -3.14056
    D6       -1.03769   0.00000   0.00000   0.00005   0.00005  -1.03764
    D7       -1.05685   0.00000   0.00000   0.00009   0.00009  -1.05677
    D8        1.04220   0.00000   0.00000   0.00002   0.00002   1.04223
    D9       -3.13814   0.00000   0.00000   0.00010   0.00010  -3.13804
   D10        3.06728   0.00000   0.00000   0.00048   0.00048   3.06775
   D11       -1.15408   0.00000   0.00000   0.00050   0.00050  -1.15357
   D12        0.97537   0.00000   0.00000   0.00043   0.00043   0.97580
   D13       -1.10799   0.00000   0.00000   0.00014   0.00014  -1.10786
   D14       -3.13334   0.00001   0.00000   0.00014   0.00014  -3.13320
   D15        0.99941   0.00000   0.00000   0.00014   0.00014   0.99955
   D16       -1.01436   0.00000   0.00000  -0.00007  -0.00007  -1.01442
   D17        3.13928   0.00000   0.00000  -0.00010  -0.00010   3.13918
   D18        1.06113   0.00000   0.00000  -0.00020  -0.00020   1.06093
   D19       -3.13917   0.00000   0.00000  -0.00003  -0.00003  -3.13920
   D20        1.01447   0.00000   0.00000  -0.00006  -0.00006   1.01441
   D21       -1.06368   0.00000   0.00000  -0.00016  -0.00016  -1.06384
   D22        1.03587   0.00000   0.00000  -0.00004  -0.00004   1.03584
   D23       -1.09367   0.00000   0.00000  -0.00007  -0.00007  -1.09374
   D24        3.11137   0.00000   0.00000  -0.00017  -0.00017   3.11119
   D25        0.77151   0.00001   0.00000   0.00059   0.00059   0.77210
   D26       -2.82257   0.00001   0.00000   0.00171   0.00171  -2.82085
   D27        2.86338   0.00000   0.00000   0.00053   0.00053   2.86391
   D28       -0.73069   0.00001   0.00000   0.00166   0.00166  -0.72904
   D29       -1.30696   0.00000   0.00000   0.00050   0.00050  -1.30646
   D30        1.38214   0.00001   0.00000   0.00163   0.00163   1.38377
   D31        1.00988   0.00000   0.00000  -0.00001  -0.00001   1.00987
   D32       -3.14056   0.00000   0.00000  -0.00005  -0.00005  -3.14061
   D33       -1.04992  -0.00001   0.00000  -0.00023  -0.00023  -1.05015
   D34        3.11403   0.00000   0.00000   0.00004   0.00004   3.11407
   D35       -1.03640   0.00000   0.00000  -0.00001  -0.00001  -1.03641
   D36        1.05423  -0.00001   0.00000  -0.00018  -0.00018   1.05405
   D37       -1.07581   0.00000   0.00000   0.00014   0.00014  -1.07567
   D38        1.05694   0.00000   0.00000   0.00009   0.00009   1.05704
   D39       -3.13561   0.00000   0.00000  -0.00008  -0.00008  -3.13569
   D40        2.80269   0.00000   0.00000  -0.00009  -0.00009   2.80260
   D41       -0.75082   0.00000   0.00000  -0.00152  -0.00152  -0.75234
   D42        0.70343   0.00001   0.00000  -0.00008  -0.00008   0.70335
   D43       -2.85008   0.00000   0.00000  -0.00151  -0.00151  -2.85159
   D44       -1.39105   0.00000   0.00000  -0.00009  -0.00009  -1.39115
   D45        1.33862   0.00000   0.00000  -0.00152  -0.00152   1.33709
   D46       -3.08852   0.00000   0.00000   0.00012   0.00012  -3.08840
   D47       -1.01732   0.00000   0.00000   0.00010   0.00010  -1.01722
   D48        1.08177   0.00000   0.00000   0.00013   0.00013   1.08190
   D49        1.14485   0.00000   0.00000   0.00023   0.00023   1.14508
   D50       -3.06713   0.00000   0.00000   0.00021   0.00021  -3.06692
   D51       -0.96804   0.00000   0.00000   0.00024   0.00024  -0.96780
   D52       -1.01544   0.00000   0.00000   0.00018   0.00018  -1.01526
   D53        1.05576   0.00000   0.00000   0.00016   0.00016   1.05592
   D54       -3.12833   0.00000   0.00000   0.00019   0.00019  -3.12814
   D55        2.77338   0.00000   0.00000   0.00059   0.00059   2.77398
   D56       -1.43101   0.00000   0.00000   0.00059   0.00059  -1.43042
   D57        0.70180   0.00001   0.00000   0.00077   0.00077   0.70257
   D58        0.87070   0.00000   0.00000   0.00044   0.00044   0.87114
   D59        3.04189   0.00000   0.00000   0.00034   0.00034   3.04223
   D60       -1.19517   0.00001   0.00000   0.00046   0.00046  -1.19471
   D61       -1.20958   0.00000   0.00000   0.00035   0.00035  -1.20923
   D62        0.96161   0.00000   0.00000   0.00025   0.00025   0.96186
   D63        3.00774   0.00000   0.00000   0.00037   0.00037   3.00811
   D64        2.98668   0.00000   0.00000   0.00034   0.00034   2.98701
   D65       -1.12532   0.00000   0.00000   0.00024   0.00024  -1.12508
   D66        0.92081   0.00000   0.00000   0.00036   0.00036   0.92117
   D67        1.09218   0.00000   0.00000  -0.00022  -0.00022   1.09196
   D68       -3.07107   0.00000   0.00000  -0.00018  -0.00018  -3.07125
   D69       -0.99735   0.00000   0.00000  -0.00016  -0.00016  -0.99752
   D70        1.31281   0.00000   0.00000  -0.00015  -0.00015   1.31266
   D71       -0.82556   0.00000   0.00000  -0.00009  -0.00009  -0.82565
   D72       -2.88470   0.00000   0.00000  -0.00007  -0.00007  -2.88476
   D73        0.25721   0.00000   0.00000  -0.00177  -0.00177   0.25544
   D74        2.76571   0.00001   0.00000  -0.00015  -0.00015   2.76555
   D75        0.27816   0.00001   0.00000   0.00175   0.00175   0.27991
   D76        2.82024   0.00001   0.00000  -0.00014  -0.00014   2.82010
         Item               Value     Threshold  Converged?
 Maximum Force            0.000028     0.000450     YES
 RMS     Force            0.000007     0.000300     YES
 Maximum Displacement     0.004184     0.001800     NO 
 RMS     Displacement     0.000557     0.001200     YES
 Predicted change in Energy=-6.453980D-08
 GradGradGradGradGradGradGradGradGradGradGradGradGradGradGradGradGradGrad

                          Input orientation:                          
 ---------------------------------------------------------------------
 Center     Atomic      Atomic             Coordinates (Angstroms)
 Number     Number       Type             X           Y           Z
 ---------------------------------------------------------------------
      1          6           0       -0.040819    0.139868    0.112647
      2          6           0       -0.586502    1.562427    0.038224
      3          6           0       -0.130189    2.182126   -1.260184
      4          6           0        1.386987    2.155122   -1.307005
      5          6           0        1.858490    0.699505   -1.167978
      6          6           0        3.373748    0.590864   -1.130747
      7          8           0       -0.462185   -0.363416    1.327596
      8          8           0       -2.010419    1.580313    0.090083
      9          8           0       -0.634631    3.513181   -1.348203
     10          8           0        1.743874    2.745081   -2.534849
     11          8           0        1.359268    0.178374    0.059290
     12          8           0        3.940571    1.477017   -0.197643
     13          1           0       -0.425969   -0.460596   -0.731459
     14          1           0       -0.175151    2.118810    0.891121
     15          1           0       -0.521853    1.599371   -2.108187
     16          1           0        1.788712    2.728634   -0.461728
     17          1           0        1.476074    0.109002   -2.016684
     18          1           0       -0.207664   -1.288446    1.415701
     19          1           0       -2.283352    0.967414    0.786392
     20          1           0       -0.091369    3.973611   -2.003473
     21          1           0        2.653543    3.058091   -2.494624
     22          1           0        3.796336    1.134987    0.689887
     23          1           0        3.647728   -0.451158   -0.928990
     24          1           0        3.775390    0.856759   -2.113074
     25         11           0       -2.757896    3.540119   -0.678679
 ---------------------------------------------------------------------
                    Distance matrix (angstroms):
                    1          2          3          4          5
     1  C    0.000000
     2  C    1.525445   0.000000
     3  C    2.462412   1.509342   0.000000
     4  C    2.848735   2.460811   1.518139   0.000000
     5  C    2.358086   2.859641   2.482240   1.536380   0.000000
     6  C    3.661788   4.241934   3.850512   2.534795   1.519603
     7  O    1.380922   2.320949   3.645080   4.087003   3.569765
     8  O    2.440229   1.424973   2.391791   3.718149   4.162571
     9  O    3.723700   2.393730   1.426155   2.435767   3.763630
    10  O    4.120862   3.667428   2.335338   1.408198   2.462896
    11  O    1.401632   2.387900   2.823919   2.403136   1.423723
    12  O    4.211379   4.534018   4.265825   2.865537   2.425105
    13  H    1.105175   2.170439   2.711276   3.234199   2.599065
    14  H    2.130794   1.098274   2.152707   2.696916   3.223354
    15  H    2.700675   2.147702   1.100959   2.143460   2.712892
    16  H    3.221614   2.692886   2.149043   1.097631   2.149656
    17  H    2.614568   3.254122   2.729509   2.167530   1.102379
    18  H    1.940584   3.188798   4.383062   4.670567   3.859577
    19  H    2.483490   1.947587   3.209378   4.389117   4.587613
    20  H    4.379281   3.198045   1.939949   2.444894   3.901253
    21  H    4.751155   4.376096   3.168646   1.957027   2.820465
    22  H    4.005899   4.451588   4.507425   3.291385   2.719660
    23  H    3.878105   4.787351   4.616983   3.470812   2.140680
    24  H    4.475625   4.914484   4.211600   2.835483   2.142998
    25  Na   4.423846   3.023271   3.014487   4.415095   5.442382
                    6          7          8          9         10
     6  C    0.000000
     7  O    4.654941   0.000000
     8  O    5.608805   2.776067   0.000000
     9  O    4.965312   4.713560   2.774427   0.000000
    10  O    3.044444   5.426595   4.726698   2.766838   0.000000
    11  O    2.375808   2.284694   3.649818   4.132507   3.669532
    12  O    1.406143   5.009771   5.958837   5.138310   3.449057
    13  H    3.962682   2.061665   2.711222   4.026763   4.270457
    14  H    4.360877   2.536601   2.073609   2.677680   3.976449
    15  H    4.141036   3.957360   2.654917   2.062271   2.574531
    16  H    2.744082   4.222439   4.007061   2.697025   2.073671
    17  H    2.149010   3.894128   4.331150   4.060835   2.699839
    18  H    4.779405   0.963444   3.638264   5.556716   5.973666
    19  H    5.984980   2.319625   0.966945   3.708869   5.514462
    20  H    4.920534   5.481179   3.713975   0.967733   2.271511
    21  H    2.909650   6.001985   5.533270   3.511904   0.962855
    22  H    1.946627   4.559264   5.854612   5.426149   4.147761
    23  H    1.096167   4.689484   6.097542   5.850669   4.052084
    24  H    1.094067   5.593217   6.233219   5.204795   2.805479
    25  Na   6.819056   4.953081   2.233956   2.226487   4.933902
                   11         12         13         14         15
    11  O    0.000000
    12  O    2.900968   0.000000
    13  H    2.054419   4.806868   0.000000
    14  H    2.609919   4.305400   3.057616   0.000000
    15  H    3.202468   4.855757   2.479524   3.063636   0.000000
    16  H    2.638126   2.503354   3.892140   2.461471   3.053648
    17  H    2.080414   3.354717   2.365166   3.901436   2.494250
    18  H    2.539032   5.240088   2.311555   3.447555   4.566835
    19  H    3.797360   6.321807   2.791587   2.404412   3.446859
    20  H    4.556661   5.074499   4.625167   3.438892   2.415222
    21  H    4.060837   3.071214   4.997329   4.510767   3.515726
    22  H    2.692966   0.962028   4.732227   4.096475   5.166393
    23  H    2.571003   2.082903   4.078494   4.952973   4.793806
    24  H    3.319190   2.020119   4.614727   5.121009   4.360939
    25  Na   5.366280   7.025471   4.631025   3.339905   3.287839
                   16         17         18         19         20
    16  H    0.000000
    17  H    3.062369   0.000000
    18  H    4.862837   4.070516   0.000000
    19  H    4.608840   4.767325   3.129443   0.000000
    20  H    2.731602   4.170402   6.276426   4.650307   0.000000
    21  H    2.233638   3.211228   6.509188   6.285612   2.934952
    22  H    2.810068   3.709688   4.736228   6.082763   5.515997
    23  H    3.712863   2.492577   4.589409   6.335029   5.891854
    24  H    3.190259   2.419770   5.737498   6.717701   4.967757
    25  Na   4.623550   5.611535   5.848517   2.998405   3.008880
                   21         22         23         24         25
    21  H    0.000000
    22  H    3.891711   0.000000
    23  H    3.969187   2.271277   0.000000
    24  H    2.499997   2.816814   1.768898   0.000000
    25  Na   5.728322   7.114463   7.551488   7.207062   0.000000
 Symmetry turned off by external request.
 Stoichiometry    C6H12NaO6(1+)
 Framework group  C1[X(C6H12NaO6)]
 Deg. of freedom    69
 Full point group                 C1      NOp   1
 Rotational constants (GHZ):      1.0758335      0.5430348      0.3887128
 Standard basis: 6-31+G(2df,p) (6D, 7F)
 Integral buffers will be    131072 words long.
 Raffenetti 2 integral format.
 Two-electron integral symmetry is turned off.
   480 basis functions,   732 primitive gaussians,   519 cartesian basis functions
    53 alpha electrons       53 beta electrons
       nuclear repulsion energy       976.4141079142 Hartrees.
 NAtoms=   25 NActive=   25 NUniq=   25 SFac= 1.00D+00 NAtFMM=   50 NAOKFM=F Big=F
 One-electron integrals computed using PRISM.
 NBasis=   480 RedAO= T  NBF=   480
 NBsUse=   480 1.00D-06 NBFU=   480
 Initial guess read from the read-write file.
 B after Tr=     0.000000    0.000000    0.000000
         Rot=    1.000000    0.000000    0.000000    0.000000 Ang=   0.00 deg.
 Requested convergence on RMS density matrix=1.00D-08 within 128 cycles.
 Requested convergence on MAX density matrix=1.00D-06.
 Requested convergence on             energy=1.00D-06.
 No special actions if energy rises.
 SCF Done:  E(RM062X) =  -849.124052065     A.U. after    7 cycles
             Convg  =    0.5873D-08             -V/T =  2.0057
 QCSCF skips out because SCF is already converged.
 Range of M.O.s used for correlation:     1   480
 NBasis=   480 NAE=    53 NBE=    53 NFC=     0 NFV=     0
 NROrb=    480 NOA=    53 NOB=    53 NVA=   427 NVB=   427

 **** Warning!!: The largest alpha MO coefficient is  0.64398010D+02

 Symmetrizing basis deriv contribution to polar:
 IMax=3 JMax=2 DiffMx= 0.00D+00
 G2DrvN: will do    26 centers at a time, making    1 passes doing MaxLOS=3.
 Calling FoFCou, ICntrl=  3107 FMM=F I1Cent=   0 AccDes= 0.00D+00.
 FoFDir/FoFCou used for L=0 through L=3.
 End of G2Drv Frequency-dependent properties file   721 does not exist.
 End of G2Drv Frequency-dependent properties file   722 does not exist.
          IDoAtm=1111111111111111111111111
          Differentiating once with respect to electric field.
                with respect to dipole field.
          Differentiating once with respect to nuclear coordinates.
          There are    78 degrees of freedom in the 1st order CPHF.  IDoFFX=5.
     78 vectors produced by pass  0 Test12= 2.90D-14 1.28D-09 XBig12= 3.84D+01 8.24D-01.
 AX will form    78 AO Fock derivatives at one time.
     75 vectors produced by pass  1 Test12= 2.90D-14 1.28D-09 XBig12= 3.64D+00 1.76D-01.
     75 vectors produced by pass  2 Test12= 2.90D-14 1.28D-09 XBig12= 9.44D-02 2.62D-02.
     75 vectors produced by pass  3 Test12= 2.90D-14 1.28D-09 XBig12= 1.01D-03 3.15D-03.
     75 vectors produced by pass  4 Test12= 2.90D-14 1.28D-09 XBig12= 6.34D-06 1.80D-04.
     75 vectors produced by pass  5 Test12= 2.90D-14 1.28D-09 XBig12= 3.09D-08 1.70D-05.
     55 vectors produced by pass  6 Test12= 2.90D-14 1.28D-09 XBig12= 1.28D-10 8.28D-07.
      3 vectors produced by pass  7 Test12= 2.90D-14 1.28D-09 XBig12= 4.78D-13 5.06D-08.
      3 vectors produced by pass  8 Test12= 2.90D-14 1.28D-09 XBig12= 1.44D-14 1.25D-08.
      2 vectors produced by pass  9 Test12= 2.90D-14 1.28D-09 XBig12= 2.37D-16 1.59D-09.
 Inverted reduced A of dimension   516 with in-core refinement.
 Isotropic polarizability for W=    0.000000       93.74 Bohr**3.
 End of Minotr Frequency-dependent properties file   721 does not exist.
 End of Minotr Frequency-dependent properties file   722 does not exist.
 Calling FoFJK, ICntrl=    100127 FMM=F ISym2X=0 I1Cent= 0 IOpClX= 0 NMat=1 NMatS=1 NMatT=0.
 -------------------------------------------------------------------
 Center     Atomic                   Forces (Hartrees/Bohr)
 Number     Number              X              Y              Z
 -------------------------------------------------------------------
      1        6           0.000004646   -0.000004410   -0.000002057
      2        6          -0.000001579   -0.000006962   -0.000001302
      3        6          -0.000003005   -0.000003386    0.000000222
      4        6          -0.000002772    0.000003063    0.000001675
      5        6           0.000003378    0.000005206    0.000000385
      6        6           0.000003643    0.000011670    0.000001313
      7        8           0.000005558   -0.000007915   -0.000003303
      8        8          -0.000001526   -0.000013399   -0.000002516
      9        8          -0.000008593   -0.000005572    0.000001017
     10        8          -0.000004339    0.000006732    0.000002391
     11        8           0.000004452    0.000001175   -0.000001144
     12        8          -0.000000827    0.000013070    0.000002798
     13        1           0.000007981   -0.000005336   -0.000003235
     14        1          -0.000004640   -0.000006045   -0.000000025
     15        1           0.000000243   -0.000004309   -0.000001068
     16        1          -0.000006035    0.000003992    0.000002387
     17        1           0.000006635    0.000004326   -0.000000848
     18        1           0.000009877   -0.000006791   -0.000003827
     19        1           0.000000443   -0.000014680   -0.000002847
     20        1          -0.000010100   -0.000002397    0.000002148
     21        1          -0.000005582    0.000009360    0.000003256
     22        1          -0.000000215    0.000011192    0.000002581
     23        1           0.000008100    0.000012630    0.000000773
     24        1           0.000003626    0.000014234    0.000002051
     25       11          -0.000009370   -0.000015447   -0.000000824
 -------------------------------------------------------------------
 Cartesian Forces:  Max     0.000015447 RMS     0.000006142

 GradGradGradGradGradGradGradGradGradGradGradGradGradGradGradGradGradGrad
 Berny optimization.
 Using GEDIIS/GDIIS optimizer.
 Internal  Forces:  Max     0.000000412 RMS     0.000000109
 Search for a local minimum.
 Step number   2 out of a maximum of  150
 All quantities printed in internal units (Hartrees-Bohrs-Radians)
 Mixed Optimization -- En-DIIS/RFO-DIIS
 Swaping is turned off.
 Second derivative matrix not updated -- analytic derivatives used.
 DE= -6.52D-08 DEPred=-6.45D-08 R= 1.01D+00
 Trust test= 1.01D+00 RLast= 5.26D-03 DXMaxT set to 3.00D-01
 ITU=  0  0
     Eigenvalues ---    0.00144   0.00253   0.00427   0.00447   0.00468
     Eigenvalues ---    0.00562   0.00649   0.00725   0.00879   0.01042
     Eigenvalues ---    0.02106   0.02285   0.02708   0.03097   0.03787
     Eigenvalues ---    0.04112   0.04359   0.04566   0.04858   0.04894
     Eigenvalues ---    0.05067   0.05206   0.05608   0.05756   0.05984
     Eigenvalues ---    0.06086   0.06292   0.06876   0.07154   0.07553
     Eigenvalues ---    0.09058   0.10156   0.10502   0.10679   0.12040
     Eigenvalues ---    0.14065   0.14564   0.15728   0.16160   0.16834
     Eigenvalues ---    0.17730   0.18789   0.19945   0.20690   0.22421
     Eigenvalues ---    0.24322   0.25908   0.27804   0.29084   0.31322
     Eigenvalues ---    0.31679   0.32069   0.32432   0.32850   0.33841
     Eigenvalues ---    0.33996   0.34454   0.34799   0.34888   0.35210
     Eigenvalues ---    0.36538   0.41669   0.41964   0.45628   0.51626
[...]
 0151282,-0.00044865,0.00024144,0.00040056,-0.00004977,-0.00004379,0.00
 011954,-0.00009768,-0.00035043,0.00082591,0.00134603,-0.06709602,-0.10
 393465,-0.18430438,-0.00070714,-0.00113887,-0.00012622,0.00101496,0.00
 069954,0.00062938,0.00046075,-0.00033075,0.00017608,-0.00014378,0.0002
 2048,0.00024440,-0.00015022,-0.00116802,0.00177890,0.00031431,-0.00728
 967,-0.03847732,0.00049619,0.00022237,0.00145954,0.00170099,0.00040160
 ,0.00059834,-0.00013509,0.00016035,0.00009925,0.00048302,-0.00006118,0
 .00012682,-0.00000164,0.00099687,0.00010599,0.07088130,0.11126088,0.21
 672617,0.00339634,-0.01641628,0.00356991,-0.00053685,-0.00038442,0.001
 86852,0.00047455,-0.00006227,0.00009598,0.00027615,-0.00016449,-0.0002
 5086,-0.00086855,0.00011301,0.00117648,0.00006860,-0.00012153,-0.00000
 419,-0.05071980,0.14576235,-0.00302754,0.00038885,0.00047721,-0.000974
 95,-0.00022159,-0.00006637,0.00005067,-0.00014157,0.00031217,-0.000180
 57,0.00030333,0.00026987,-0.00096835,0.00000114,0.00013577,-0.00009254
 ,-0.00033305,0.00044738,0.00074405,-0.00005469,0.00004783,0.00005349,-
 0.00005529,-0.00002323,-0.00002583,-0.00000368,-0.00004771,0.00001065,
 0.00002019,-0.00002589,-0.00025318,0.04673679,0.00235558,-0.01535664,0
 .00131350,-0.00051996,0.00033084,0.00312849,0.00051908,-0.00044673,-0.
 00012890,0.00009825,-0.00026189,-0.00005253,-0.00003860,-0.00027905,0.
 00118866,-0.00021320,0.00022487,-0.00034890,0.12553476,-0.48447135,0.0
 5634839,-0.00062300,0.00087545,-0.00051986,-0.00018480,0.00028204,-0.0
 0001212,0.00006463,0.00035253,-0.00029677,0.00171733,0.00102283,-0.002
 78738,0.00028160,0.00000553,0.00005882,0.00028959,0.00203475,-0.001562
 45,-0.00003576,0.00049552,0.00001276,-0.00001903,0.00003035,0.00009804
 ,-0.00002650,-0.00000661,0.00000277,-0.00002041,0.00006716,-0.00018171
 ,-0.12985823,0.49591358,-0.01064613,0.04348877,-0.00793823,0.00265553,
 0.00166243,-0.00636716,-0.00080371,0.00135316,0.00111490,-0.00018579,0
 .00010259,0.00007578,0.00020461,0.00025306,-0.00049912,0.00024930,0.00
 001286,0.00018718,0.01239397,0.01210501,-0.03906962,0.00026448,-0.0007
 7492,0.00047971,0.00027853,0.00031017,-0.00059251,0.00001324,-0.000247
 75,0.00014111,-0.00047859,-0.00213231,0.00155175,-0.00024912,-0.000132
 15,-0.00023292,-0.00067361,-0.00014836,0.00056697,0.00017051,-0.000036
 17,0.00017701,-0.00008642,-0.00007846,-0.00003092,0.00002712,-0.000029
 96,-0.00000760,-0.00000567,-0.00000513,-0.00009499,-0.00246090,-0.0562
 6929,0.05080502,-0.00309201,0.00036563,0.00427372,-0.01768782,-0.02656
 065,0.03248050,-0.00812644,0.00084155,-0.00152336,0.00084230,-0.001002
 99,0.00170748,-0.00028594,-0.00053865,0.00101527,-0.00012112,0.0000764
 2,-0.00018131,0.00087560,-0.00171935,-0.00039320,-0.07683503,-0.060175
 21,0.07103399,0.00078621,0.00092014,-0.00090888,-0.00084519,0.00002059
 ,-0.00003674,0.00227132,-0.00025581,-0.00114492,0.00016022,0.00007905,
 0.00002822,0.00006273,0.00016895,-0.00027692,-0.00033104,-0.00061469,-
 0.00026823,0.00017278,0.00020095,-0.00015590,0.00002145,-0.00004060,-0
 .00004865,-0.00000276,0.00005424,-0.00010732,0.00123668,0.00054909,-0.
 00063425,0.09975489,0.00544321,0.00417124,-0.00370548,-0.00271455,0.00
 204600,-0.00161004,0.00248007,-0.00069982,-0.00072409,-0.00032635,0.00
 067665,-0.00014872,-0.00004480,0.00065058,-0.00057951,-0.00000736,-0.0
 0006497,0.00017130,-0.00256053,-0.00067359,0.00095512,-0.08826683,-0.2
 1397296,0.23362470,0.00010909,0.00001376,0.00004509,0.00055832,-0.0000
 6528,-0.00017787,-0.00121536,-0.00161273,0.00102896,0.00002784,-0.0001
 3970,-0.00003223,-0.00008696,-0.00043815,-0.00010858,0.00038908,-0.000
 23468,0.00038522,-0.00005534,0.00000544,0.00003139,0.00000922,-0.00004
 000,-0.00005339,0.00000312,-0.00005525,0.00003911,-0.00029924,-0.00053
 370,0.00022242,0.08710782,0.21241052,-0.00012866,-0.00129707,0.0033251
 7,0.00250750,0.00054093,-0.00123721,0.00130356,0.00014742,0.00030763,-
 0.00004697,0.00022296,-0.00004275,0.00034219,0.00011028,-0.00037877,0.
 00014128,0.00003148,0.00006699,-0.00007297,-0.00026307,-0.00190671,0.1
 0264134,0.23250495,-0.27112772,-0.00023640,-0.00059538,0.00036861,-0.0
 0013176,-0.00003818,0.00014852,-0.00124248,0.00085134,-0.00083656,-0.0
 0014914,-0.00003727,-0.00010309,0.00038952,-0.00025025,-0.00073252,-0.
 00189228,-0.00052931,0.00024606,-0.00005968,-0.00000863,0.00018839,0.0
 0007235,-0.00001240,0.00007067,0.00001650,-0.00001736,-0.00000784,0.00
 055971,-0.00010454,-0.00033397,-0.10416435,-0.23137481,0.27172183,0.00
 241859,-0.00034771,-0.00090938,-0.00265033,0.00482056,-0.00036474,0.01
 104362,0.00632966,-0.01131796,0.00080723,0.00587277,-0.00427790,-0.000
 13243,0.00045793,-0.00026775,0.00000714,0.00018058,-0.00018485,-0.0004
 9545,0.00075675,-0.00018989,-0.00030266,-0.00021822,0.00038787,-0.1831
 3334,-0.12698178,0.20115365,0.00117631,-0.00388797,0.00048603,-0.00120
 250,-0.00096092,0.00091161,0.00010395,-0.00021381,0.00015805,-0.000132
 54,0.00004938,-0.00004793,-0.00002255,-0.00015384,0.00008091,-0.000270
 95,0.00060834,0.00046786,-0.00041677,-0.00022677,-0.00001626,0.0000512
 2,-0.00018827,-0.00000768,0.00011042,0.00006759,-0.00012435,0.00001106
 ,-0.00015718,0.00001197,0.17536780,-0.00124565,0.00027755,0.00162749,0
 .00262365,-0.00611905,-0.00145661,-0.01820997,-0.02651959,0.02879552,0
 .00057085,0.00034686,0.00267273,-0.00109420,-0.00067126,0.00061101,0.0
 0032125,0.00049645,0.00006614,0.00026054,-0.00052573,-0.00008263,0.000
 56318,0.00099856,-0.00081996,-0.09738026,-0.13631169,0.13658352,-0.001
 80123,-0.00075944,-0.00029146,0.00041701,0.00034070,-0.00049398,-0.000
 28050,-0.00010234,-0.00024858,-0.00001382,0.00000617,-0.00006150,0.000
 13207,0.00018491,-0.00013494,-0.00037312,-0.00062393,-0.00002566,0.000
 24614,0.00008865,-0.00023071,-0.00002931,-0.00003572,-0.00003817,-0.00
 003768,-0.00006238,0.00018352,-0.00003327,-0.00001789,0.00011166,0.115
 90989,0.16667002,0.00022107,0.00018284,-0.00014443,-0.00046440,0.00174
 965,0.00017422,0.00026714,0.00428982,-0.00234994,0.00017835,-0.0015061
 4,0.00280310,0.00082952,0.00052223,-0.00094178,-0.00017346,-0.00041760
 ,0.00026394,0.00002676,-0.00006017,0.00008315,-0.00044865,-0.00042109,
 0.00038424,0.18927162,0.16283255,-0.23615120,-0.00081938,-0.00002150,-
 0.00193510,0.00000885,0.00018286,-0.00018999,0.00019521,-0.00008081,-0
 .00007786,-0.00002300,0.00004597,0.00004641,0.00000502,-0.00004511,0.0
 0015918,0.00013807,-0.00204516,0.00008408,-0.00056405,0.00030518,-0.00
 078950,0.00000576,-0.00023058,0.00001355,0.00001200,0.00001878,-0.0000
 2358,0.00010433,0.00002732,-0.00002070,-0.18844883,-0.16605107,0.23840
 394,-0.00041170,-0.00027358,0.00021261,-0.00058422,0.00021510,-0.00025
 073,-0.00038526,-0.00061903,0.00241097,-0.00851657,-0.00063491,-0.0029
 3005,0.00139186,-0.00089786,-0.00071086,0.00116023,0.00066136,-0.00047
 309,0.00008273,0.00016160,-0.00019959,0.00027039,-0.00001936,0.0000298
 4,0.00085088,-0.00044249,0.00013289,-0.47431057,-0.16638046,-0.0130885
 6,-0.00021133,0.00136083,-0.00079596,-0.00072032,-0.00055054,0.0004909
 8,0.00001426,0.00000255,0.00000350,0.00003081,0.00000038,0.00013587,0.
 00047056,0.00015545,0.00004594,0.00185503,0.00118196,-0.00179673,-0.00
 008407,0.00006068,0.00006482,-0.00000806,-0.00006537,0.00003787,-0.000
 05843,-0.00001565,0.00002701,-0.00068539,-0.00033267,-0.00034296,0.480
 26974,-0.00069445,0.00000696,0.00008878,-0.00014071,0.00028413,0.00015
 874,0.00145189,-0.00086574,0.00096964,-0.01590348,-0.00733769,-0.00188
 606,-0.00285875,-0.00106616,0.00145048,-0.00033724,-0.00004115,0.00238
 547,0.00027218,0.00008607,-0.00025919,0.00035186,-0.00008031,-0.000138
 43,0.00077405,0.00010386,-0.00111159,-0.15246162,-0.06409733,0.0095308
 6,0.00144522,-0.00000792,-0.00032042,0.00001710,-0.00052657,-0.0010134
 0,0.00005208,-0.00001866,0.00001654,-0.00000148,-0.00003312,0.00001121
 ,0.00016981,-0.00002592,0.00002464,0.00098480,0.00162489,-0.00039285,-
 0.00008486,0.00005152,-0.00004875,-0.00005704,-0.00005951,0.00004902,-
 0.00003505,0.00006784,0.00000177,-0.00044137,0.00136715,0.00068707,0.1
 6614236,0.07087824,0.00035034,-0.00013487,-0.00000045,0.00157041,-0.00
 038954,0.00119691,0.00153025,0.00344781,-0.00693795,0.03977509,0.01435
 257,-0.00321475,0.00031610,0.00030723,-0.00040180,0.00007408,0.0015906
 7,0.00113637,-0.00013646,-0.00001146,0.00005942,0.00036114,0.00042276,
 -0.00071550,-0.00072585,-0.00002468,0.00031952,-0.06011514,-0.00793057
 ,-0.03905443,-0.00049912,-0.00006139,-0.00007020,0.00015526,-0.0012493
 5,-0.00001106,-0.00004513,0.00001651,-0.00001772,-0.00004298,-0.000081
 16,-0.00005342,-0.00017627,0.00015376,0.00012840,0.00069474,-0.0006081
 6,0.00047815,-0.00018401,-0.00022882,0.00001897,0.00003483,0.00003641,
 -0.00001498,0.00022788,-0.00005608,-0.00001724,0.00032292,-0.00037009,
 -0.00008507,0.01657853,-0.00880078,0.04716113,-0.00164650,-0.00024252,
 0.00089460,-0.00033945,0.00004772,-0.00015622,-0.00016276,0.00036843,-
 0.00014227,-0.00036011,-0.00009384,-0.00088734,0.00001580,-0.00009718,
 -0.00489301,-0.00000446,0.00511083,-0.01813934,0.00041622,0.00028551,-
 0.00033587,0.00059659,-0.00017729,0.00003835,0.00012238,-0.00029835,0.
 00015727,-0.00022621,-0.00032262,0.00090034,0.00144127,0.00034227,0.00
 112312,-0.02415554,-0.04648482,0.08096910,0.00049236,0.00005194,0.0000
 7792,-0.00006121,0.00008389,0.00009316,0.00007059,0.00000074,0.0000463
 2,-0.00026210,0.00067643,-0.00022598,-0.00033423,-0.00010616,0.0005460
 8,-0.00012345,-0.00022425,0.00007108,-0.00013873,0.00001223,0.00006127
 ,-0.00000879,0.00007298,-0.00006980,0.00023842,-0.00006581,0.00003206,
 0.02448932,-0.00027221,-0.00002468,0.00027729,0.00024947,0.00024386,0.
 00010953,0.00007465,-0.00002307,-0.00009663,0.00032136,0.00025121,0.00
 078392,-0.00044200,0.00028853,-0.00082352,0.00277219,0.00666075,-0.033
 20524,0.00009896,-0.00014117,0.00007762,-0.00002645,-0.00021697,-0.000
 01853,-0.00006720,-0.00007704,-0.00002520,0.00009065,0.00002050,-0.000
 46519,0.00025071,-0.00070269,0.00031562,-0.04361186,-0.10413521,0.1944
 4969,0.00010051,-0.00001412,0.00000852,0.00005684,-0.00002620,-0.00005
 362,-0.00006044,-0.00000637,-0.00003174,0.00032116,-0.00041336,0.00029
 359,-0.00023186,-0.00014323,0.00013248,-0.00017575,0.00000749,-0.00003
 319,-0.00002960,0.00007369,0.00000312,0.00003757,0.00000139,0.00005250
 ,-0.00031389,0.00008705,-0.00022124,0.04254804,0.10052969,-0.00090035,
 -0.00006728,0.00077290,-0.00012300,0.00008698,0.00021972,-0.00028696,0
 .00010658,0.00009408,0.00009057,0.00037682,-0.00036599,-0.00029668,0.0
 0038725,0.00019139,0.00483245,0.01050833,-0.02794010,0.00009679,0.0001
 6608,-0.00059335,0.00024857,-0.00005222,-0.00016456,0.00033762,-0.0002
 9755,-0.00003359,0.00013619,-0.00016836,0.00027418,0.00084229,0.000157
 53,-0.00035374,0.05649467,0.14728691,-0.45041050,0.00014252,-0.0000137
 6,-0.00006463,0.00002231,-0.00004538,0.00000932,0.00005565,-0.00000989
 ,-0.00002772,-0.00034333,0.00028059,-0.00008203,0.00048041,0.00003962,
 0.00008619,0.00004381,-0.00003746,0.00014550,-0.00001971,-0.00000403,0
 .00007425,-0.00008730,0.00009386,-0.00002534,-0.00003181,0.00014498,-0
 .00019268,-0.06030451,-0.15602377,0.47660690,-0.00041096,0.00000526,-0
 .00011450,0.00035614,0.00022964,-0.00031978,0.00097510,0.00180078,-0.0
 0010738,-0.00714864,-0.00264992,0.00104937,-0.01302342,0.03405138,-0.0
 0807567,-0.06698238,0.06652698,-0.01474431,0.00018892,-0.00012449,0.00
 000645,-0.00000600,-0.00027507,0.00016961,-0.00136362,0.00077778,-0.00
 001054,0.00089982,-0.00034940,-0.00033787,0.00396427,-0.00075925,-0.00
 072287,0.00373178,-0.02037535,-0.00183091,0.00008777,0.00003770,0.0000
 3171,-0.00002467,-0.00000268,0.00002771,-0.00000610,-0.00002090,-0.000
 02751,0.00004166,0.00001221,0.00011895,0.00094773,-0.00044373,-0.00021
 671,-0.00011770,-0.00000455,0.00004703,-0.00005728,0.00007159,-0.00000
 737,0.00000801,-0.00017697,0.00016381,-0.00025237,0.00015126,-0.000073
 29,0.00053129,0.00063994,0.00130767,0.07306122,0.00013845,0.00027855,-
 0.00009272,-0.00018904,-0.00014177,0.00006406,-0.00006029,-0.00003111,
 0.00005925,-0.00038366,0.00102142,0.00065999,0.00152498,-0.00267120,0.
 00293754,0.06524251,-0.28117389,0.05367154,-0.00002364,0.00003485,0.00
 000468,0.00000506,0.00013204,-0.00003492,0.00005111,0.00004943,-0.0000
 5791,0.00011573,0.00005631,-0.00001787,-0.00089563,0.00073997,-0.00042
 281,-0.00140244,-0.02457052,-0.00825538,-0.00001358,-0.00000811,-0.000
 01274,0.00000324,0.00001176,0.00001265,0.00003076,-0.00001501,0.000001
 71,-0.00032160,0.00019825,-0.00002198,0.00110658,0.00022313,-0.0000904
 4,0.00005821,-0.00000646,-0.00001417,0.00002092,-0.00003253,-0.0000038
 7,-0.00006031,0.00001958,-0.00001481,-0.00009327,0.00009125,-0.0001862
 9,-0.00080922,0.00046107,0.00091308,-0.06687760,0.31131048,0.00027912,
 0.00000176,0.00007681,0.00004669,0.00001544,-0.00008901,0.00016800,0.0
 0012093,0.00005217,0.00004559,0.00003284,-0.00038074,0.00364854,0.0008
 8188,0.00053840,-0.01620370,0.06050585,-0.06556511,-0.00015070,-0.0000
 3226,0.00004311,-0.00012397,0.00000833,0.00004338,-0.00022162,0.000090
 24,0.00001504,-0.00078346,0.00021570,0.00070887,-0.00057112,-0.0009127
 3,0.00071307,0.00107667,-0.03333069,-0.00064683,-0.00004940,-0.0000153
 6,-0.00003541,-0.00001682,-0.00001416,0.00000360,0.00000520,-0.0000119
 6,-0.00000975,-0.00020136,0.00010539,0.00000242,0.00005014,0.00024171,
 -0.00021202,0.00006247,0.00003538,-0.00000040,0.00001789,0.00000204,-0
 .00000881,0.00008034,-0.00007831,-0.00000022,0.00017372,-0.00077631,-0
 .00003607,0.00063911,-0.00118814,0.00251992,0.02051463,-0.05125335,0.0
 6687978,0.00161051,-0.00009648,0.00121905,0.00002369,-0.00033974,0.000
 08248,-0.00012099,-0.00032037,0.00014975,0.00010098,-0.00054948,0.0013
 7542,-0.00753099,-0.01017305,0.02852535,-0.09071554,-0.02525519,0.0949
 7789,-0.00103273,-0.00029928,0.00066844,-0.00019505,0.00030730,-0.0001
 0906,0.00026044,0.00010858,-0.00018263,0.00109938,0.00010241,-0.001305
 40,-0.00962315,0.00049122,0.00031679,0.00592959,0.00221518,-0.01995185
 ,-0.00020250,-0.00003486,-0.00008814,-0.00000430,0.00001133,-0.0000069
 3,-0.00001577,0.00000504,0.00000275,-0.00003839,0.00011424,-0.00010014
 ,0.00084088,-0.00056692,-0.00036635,0.00003621,0.00015760,-0.00005476,
 0.00009703,-0.00007735,-0.00001277,-0.00018047,0.00009855,0.00004318,-
 0.00016407,0.00138705,-0.00013051,-0.00039014,-0.00239675,-0.00260436,
 0.00443808,0.00288153,-0.00855125,0.09581363,0.00041741,0.00058369,-0.
 00019038,-0.00008392,-0.00007603,-0.00005764,0.00003257,0.00005526,0.0
 0011320,-0.00026707,0.00015560,-0.00049096,0.00324676,0.00049351,-0.00
 290384,-0.02780068,-0.07032471,0.07142548,-0.00002415,-0.00006661,0.00
 006504,-0.00015731,0.00007441,0.00002737,-0.00011645,0.00008380,-0.000
 00875,0.00027199,-0.00064201,0.00031632,-0.00041309,0.00046333,0.00036
 413,0.00552907,0.00563885,-0.02825300,-0.00004585,-0.00001137,-0.00002
 229,-0.00000995,-0.00000508,-0.00000054,0.00000977,-0.00000359,-0.0000
 0384,-0.00004319,-0.00003556,-0.00002310,-0.00058922,0.00004491,0.0002
 6727,0.00006335,0.00002837,-0.00001694,0.00002972,-0.00000501,-0.00001
 678,0.00004720,-0.00003437,0.00000207,0.00065786,-0.00068997,-0.000011
 68,-0.00085375,-0.00273948,-0.00390435,-0.01225765,-0.00595920,0.02538
 407,0.03229810,0.07300478,-0.00018840,0.00004246,0.00026221,-0.0000548
 7,-0.00000759,-0.00004132,-0.00004909,-0.00003162,0.00004951,0.0008462
 8,0.00054839,-0.00123550,0.00134310,0.00050573,0.00024804,0.08944684,0
 .06343309,-0.25544248,-0.00012879,-0.00009689,0.00012215,0.00000576,-0
 .00001796,0.00003503,-0.00000109,-0.00009723,0.00007513,-0.00151036,0.
 00091469,0.00041547,-0.00126654,0.00024161,0.00158588,0.00182125,-0.00
 007694,-0.02992547,0.00002945,-0.00000549,-0.00000447,-0.00002022,0.00
 000982,0.00000888,0.00002763,-0.00000300,0.00000085,-0.00004253,0.0000
 2969,0.00000127,0.00064159,-0.00033450,0.00049908,-0.00003380,-0.00000
 030,-0.00001085,-0.00001228,0.00000555,-0.00000540,0.00010393,-0.00003
 839,-0.00005733,0.00021660,-0.00077775,0.00034099,-0.00044862,-0.00433
 069,-0.00081464,0.00323346,0.00214307,-0.00459849,-0.09396738,-0.06206
 198,0.28851433,-0.00096227,0.00132854,-0.00048392,-0.00060546,0.002701
 42,-0.00147673,-0.00425078,0.00658238,0.00034337,-0.00071401,-0.000455
 58,0.00028755,0.00044851,0.00067637,-0.00023828,-0.00042071,-0.0002743
 6,-0.00001514,-0.00015629,-0.00113642,0.00080179,-0.00628005,0.0094058
 3,-0.00373693,-0.02779831,-0.00250456,0.01094332,0.00109836,-0.0002219
 8,-0.00057420,0.00003843,-0.00041763,0.00020204,0.00049770,-0.00008231
 ,0.00019222,0.00011916,-0.00022746,0.00002350,-0.00055337,0.00010545,-
 0.00042905,0.00012869,-0.00074581,-0.00002130,-0.00010714,0.00002088,-
 0.00014452,-0.00001809,-0.00004667,0.00001336,0.00013506,0.00019854,-0
 .00000996,0.00128953,-0.00038409,0.00007064,-0.00147120,-0.00020747,-0
 .00011617,-0.00024253,-0.00011781,0.00010513,-0.00020059,0.00006598,-0
 .00013351,0.00016135,-0.00004882,0.00006531,-0.00003633,0.00005851,0.0
 0000806,0.03990036,0.00096911,-0.00105022,0.00020349,0.00766858,-0.000
 51044,0.00007922,0.00157100,0.00291899,-0.00115107,0.00099362,-0.00072
 294,-0.00031716,0.00058488,0.00026712,-0.00082676,0.00027914,-0.000002
 99,0.00017946,-0.00071699,0.00057699,-0.00037765,0.00506713,-0.0223788
 6,0.01132406,0.00207347,-0.00333457,0.00036742,-0.00063391,-0.00075580
 ,0.00065690,-0.00189068,0.00036107,0.00041536,-0.00034418,-0.00011548,
 -0.00015125,-0.00000497,-0.00004172,-0.00011975,-0.00099319,-0.0000190
 5,-0.00016043,0.00036247,-0.00086709,-0.00052339,-0.00021732,0.0000502
 2,0.00005181,0.00002293,-0.00005706,0.00004808,0.00005296,-0.00018697,
 0.00017579,0.00057083,-0.00152945,0.00002300,-0.00130009,0.00098541,-0
 .00000479,0.00003895,0.00020108,0.00003844,0.00017482,0.00003836,0.000
 07546,0.00001304,-0.00001827,-0.00002827,-0.00006867,-0.00003353,0.000
 00624,-0.01427293,0.02622518,-0.00040938,0.00032899,0.00022816,-0.0038
 2734,0.00058581,0.00185931,0.00179131,-0.00292941,0.00211728,-0.000183
 86,0.00032965,-0.00005771,-0.00051678,-0.00041257,0.00080131,0.0001036
 8,0.00018780,0.00000733,0.00033753,0.00001625,-0.00043259,-0.00044726,
 0.00793796,-0.00712688,0.00692961,0.00232340,-0.00561927,-0.00003305,0
 .00035729,-0.00043072,0.00102004,-0.00010671,-0.00062240,-0.00006874,-
 0.00002761,-0.00017904,0.00005931,-0.00023790,-0.00008101,-0.00022503,
 0.00016017,-0.00035219,0.00025812,-0.00025754,-0.00036462,-0.00016086,
 -0.00004192,-0.00003237,-0.00000831,-0.00003485,-0.00008982,-0.0000098
 7,0.00006021,-0.00002808,-0.00101325,0.00203662,0.00024118,0.00207966,
 -0.00032340,0.00037625,0.00005921,0.00000634,-0.00001652,-0.00004684,0
 .00001282,0.00007452,-0.00008169,0.00001169,-0.00001368,0.00007041,0.0
 0000113,-0.00002286,-0.00567659,-0.00998420,0.00976442\\-0.00000465,0.
 00000441,0.00000206,0.00000158,0.00000696,0.00000130,0.00000301,0.0000
 0339,-0.00000022,0.00000277,-0.00000306,-0.00000168,-0.00000338,-0.000
 00521,-0.00000039,-0.00000364,-0.00001167,-0.00000131,-0.00000556,0.00
 000792,0.00000330,0.00000153,0.00001340,0.00000252,0.00000859,0.000005
 57,-0.00000102,0.00000434,-0.00000673,-0.00000239,-0.00000445,-0.00000
 118,0.00000114,0.00000083,-0.00001307,-0.00000280,-0.00000798,0.000005
 34,0.00000324,0.00000464,0.00000605,0.00000002,-0.00000024,0.00000431,
 0.00000107,0.00000603,-0.00000399,-0.00000239,-0.00000663,-0.00000433,
 0.00000085,-0.00000988,0.00000679,0.00000383,-0.00000044,0.00001468,0.
 00000285,0.00001010,0.00000240,-0.00000215,0.00000558,-0.00000936,-0.0
 0000326,0.00000021,-0.00001119,-0.00000258,-0.00000810,-0.00001263,-0.
 00000077,-0.00000363,-0.00001423,-0.00000205,0.00000937,0.00001545,0.0
 0000082\\\@


 WE TEND TO MEET ANY NEW SITUATION BY REORGANIZING. IT CAN BE A
 WONDERFUL METHOD FOR CREATING THE ILLUSION OF PROGRESS WHILE PRODUCING
 CONFUSION, INEFFICIENCY, AND DEMORALIZATION.
     -- PETRONIUS ARBITER, 210 B.C.
 Job cpu time:  1 days 10 hours 15 minutes 47.8 seconds.
 File lengths (MBytes):  RWF=    500 Int=      0 D2E=      0 Chk=     17 Scr=      1
 Normal termination of Gaussian 09 at Wed Mar  7 20:28:55 2012.
