 Entering Gaussian System, Link 0=g09
 Initial command:
 /projects/nrel/apps/gaussian/g09/B.01/g09/l1.exe /scratch/hbmayes/glucNaOpen2b3ltsircropt.2409006.scr/Gau-1029.inp -scrdir=/scratch/hbmayes/glucNaOpen2b3ltsircropt.2409006.scr/
 Default is to use a total of   8 processors:
                                8 via shared-memory
                                1 via Linda
 Entering Link 1 = /projects/nrel/apps/gaussian/g09/B.01/g09/l1.exe PID=      1030.
  
 Copyright (c) 1988,1990,1992,1993,1995,1998,2003,2009,2010,
            Gaussian, Inc.  All Rights Reserved.
  
 This is part of the Gaussian(R) 09 program.  It is based on
 the Gaussian(R) 03 system (copyright 2003, Gaussian, Inc.),
 the Gaussian(R) 98 system (copyright 1998, Gaussian, Inc.),
 the Gaussian(R) 94 system (copyright 1995, Gaussian, Inc.),
 the Gaussian 92(TM) system (copyright 1992, Gaussian, Inc.),
 the Gaussian 90(TM) system (copyright 1990, Gaussian, Inc.),
 the Gaussian 88(TM) system (copyright 1988, Gaussian, Inc.),
 the Gaussian 86(TM) system (copyright 1986, Carnegie Mellon
 University), and the Gaussian 82(TM) system (copyright 1983,
 Carnegie Mellon University). Gaussian is a federally registered
 trademark of Gaussian, Inc.
  
 This software contains proprietary and confidential information,
 including trade secrets, belonging to Gaussian, Inc.
  
 This software is provided under written license and may be
 used, copied, transmitted, or stored only in accord with that
 written license.
  
 The following legend is applicable only to US Government
 contracts under FAR:
  
                    RESTRICTED RIGHTS LEGEND
  
 Use, reproduction and disclosure by the US Government is
 subject to restrictions as set forth in subparagraphs (a)
 and (c) of the Commercial Computer Software - Restricted
 Rights clause in FAR 52.227-19.
  
 Gaussian, Inc.
 340 Quinnipiac St., Bldg. 40, Wallingford CT 06492
  
  
 ---------------------------------------------------------------
 Warning -- This program may not be used in any manner that
 competes with the business of Gaussian, Inc. or will provide
 assistance to any competitor of Gaussian, Inc.  The licensee
 of this program is prohibited from giving any competitor of
 Gaussian, Inc. access to this program.  By using this program,
 the user acknowledges that Gaussian, Inc. is engaged in the
 business of creating and licensing software in the field of
 computational chemistry and represents and warrants to the
 licensee that it is not a competitor of Gaussian, Inc. and that
 it will not use this program in any manner prohibited above.
 ---------------------------------------------------------------
  

 Cite this work as:
 Gaussian 09, Revision B.01,
 M. J. Frisch, G. W. Trucks, H. B. Schlegel, G. E. Scuseria, 
 M. A. Robb, J. R. Cheeseman, G. Scalmani, V. Barone, B. Mennucci, 
 G. A. Petersson, H. Nakatsuji, M. Caricato, X. Li, H. P. Hratchian, 
 A. F. Izmaylov, J. Bloino, G. Zheng, J. L. Sonnenberg, M. Hada, 
 M. Ehara, K. Toyota, R. Fukuda, J. Hasegawa, M. Ishida, T. Nakajima, 
 Y. Honda, O. Kitao, H. Nakai, T. Vreven, J. A. Montgomery, Jr., 
 J. E. Peralta, F. Ogliaro, M. Bearpark, J. J. Heyd, E. Brothers, 
 K. N. Kudin, V. N. Staroverov, T. Keith, R. Kobayashi, J. Normand, 
 K. Raghavachari, A. Rendell, J. C. Burant, S. S. Iyengar, J. Tomasi, 
 M. Cossi, N. Rega, J. M. Millam, M. Klene, J. E. Knox, J. B. Cross, 
 V. Bakken, C. Adamo, J. Jaramillo, R. Gomperts, R. E. Stratmann, 
 O. Yazyev, A. J. Austin, R. Cammi, C. Pomelli, J. W. Ochterski, 
 R. L. Martin, K. Morokuma, V. G. Zakrzewski, G. A. Voth, 
 P. Salvador, J. J. Dannenberg, S. Dapprich, A. D. Daniels, 
 O. Farkas, J. B. Foresman, J. V. Ortiz, J. Cioslowski, 
 and D. J. Fox, Gaussian, Inc., Wallingford CT, 2010.
 
 ******************************************
 Gaussian 09:  EM64L-G09RevB.01 12-Aug-2010
                 5-Apr-2013 
 ******************************************
 %RWF=/dev/shm/,2GB,/scratch/hbmayes/glucNaOpen2b3ltsircropt.2409006.scr/,-1
 %NoSave
 %CHK=/scratch/hbmayes/glucose/glucNaOpen2b3ltsircropt.chk
 %mem=10GB
 %nproc=8
 Will use up to    8 processors via shared memory.
 Default route:  MaxDisk=16GB
 ----------------------------------------------------------------------
 # opt(Tight) freq=noraman b3lyp/6-311+G(2df,p) Int=(Grid=Ultrafine) no
 symm scrf=(solvent=ethanol) scf=(xqc,maxcycle=1000)
 ----------------------------------------------------------------------
 1/7=10,14=-1,18=20,19=15,26=3,38=1/1,3;
 2/9=110,12=2,15=1,17=6,18=5,40=1/2;
 3/5=4,6=6,7=114,11=2,16=1,25=1,30=1,70=2201,71=1,72=4,74=-5,75=-5/1,2,3;
 4//1;
 5/5=2,7=1000,8=3,13=1,38=5,53=4/2,8;
 6/7=2,8=2,9=2,10=2,28=1/1;
 7/30=1/1,2,3,16;
 1/7=10,14=-1,18=20,19=15/3(2);
 2/9=110,15=1/2;
 99//99;
 2/9=110,15=1/2;
 3/5=4,6=6,7=114,11=2,16=1,25=1,30=1,70=2205,71=1,72=4,74=-5,75=-5/1,2,3;
 4/5=5,16=3/1;
 5/5=2,7=1000,8=3,13=1,38=5,53=4/2,8;
 7/30=1/1,2,3,16;
 1/7=10,14=-1,18=20,19=15/3(-5);
 2/9=110,15=1/2;
 6/7=2,8=2,9=2,10=2,19=2,28=1/1;
 99/9=1/99;
 -----
 again
 -----
 Symbolic Z-matrix:
 Charge =  1 Multiplicity = 1
 6                    -1.12235  -1.07509   0.31642 
 6                    -1.34463   0.43722   0.21238 
 6                    -0.6003    1.19092  -0.8921 
 6                     0.91261   1.14568  -0.69116 
 6                     1.46636  -0.27754  -0.85457 
 6                     2.85636  -0.47216  -0.29009 
 8                    -1.00494  -1.62973   1.41731 
 8                    -2.75166   0.50891   0.01395 
 8                    -1.07886   2.53418  -0.81968 
 8                     1.49149   1.98514  -1.68063 
 8                     0.663    -1.25047  -0.19797 
 8                     3.71712   0.39712  -0.99966 
 1                    -1.49611  -1.62893  -0.55666 
 1                    -1.07053   0.87942   1.17794 
 1                    -0.84963   0.76346  -1.87212 
 1                     1.14376   1.52972   0.3118 
 1                     1.44839  -0.52859  -1.91685 
 1                     0.96345  -1.42092   0.70941 
 1                    -2.98085   1.43412  -0.14522 
 1                    -0.59598   3.05997  -1.47004 
 1                     2.45441   1.90627  -1.60428 
 1                     4.58859   0.40483  -0.58918 
 1                     2.84991  -0.2352    0.7822 
 1                     3.15241  -1.51847  -0.41623 
 11                   -2.2737   -2.46977   2.9699 
 

 GradGradGradGradGradGradGradGradGradGradGradGradGradGradGradGradGradGrad
 Berny optimization.
 Initialization pass.
                           ----------------------------
                           !    Initial Parameters    !
                           ! (Angstroms and Degrees)  !
 --------------------------                            --------------------------
 ! Name  Definition              Value          Derivative Info.                !
 --------------------------------------------------------------------------------
 ! R1    R(1,2)                  1.5321         estimate D2E/DX2                !
 ! R2    R(1,7)                  1.2383         estimate D2E/DX2                !
 ! R3    R(1,13)                 1.0994         estimate D2E/DX2                !
 ! R4    R(2,3)                  1.5304         estimate D2E/DX2                !
 ! R5    R(2,8)                  1.4228         estimate D2E/DX2                !
 ! R6    R(2,14)                 1.0968         estimate D2E/DX2                !
 ! R7    R(3,4)                  1.5269         estimate D2E/DX2                !
 ! R8    R(3,9)                  1.4278         estimate D2E/DX2                !
 ! R9    R(3,15)                 1.0979         estimate D2E/DX2                !
 ! R10   R(4,5)                  1.5359         estimate D2E/DX2                !
 ! R11   R(4,10)                 1.4209         estimate D2E/DX2                !
 ! R12   R(4,16)                 1.0986         estimate D2E/DX2                !
 ! R13   R(5,6)                  1.5128         estimate D2E/DX2                !
 ! R14   R(5,11)                 1.4224         estimate D2E/DX2                !
 ! R15   R(5,17)                 1.0917         estimate D2E/DX2                !
 ! R16   R(6,12)                 1.4142         estimate D2E/DX2                !
 ! R17   R(6,23)                 1.0982         estimate D2E/DX2                !
 ! R18   R(6,24)                 1.0947         estimate D2E/DX2                !
 ! R19   R(7,25)                 2.1739         estimate D2E/DX2                !
 ! R20   R(8,19)                 0.9664         estimate D2E/DX2                !
 ! R21   R(9,20)                 0.9657         estimate D2E/DX2                !
 ! R22   R(10,21)                0.9692         estimate D2E/DX2                !
 ! R23   R(11,18)                0.9709         estimate D2E/DX2                !
 ! R24   R(12,22)                0.9633         estimate D2E/DX2                !
 ! A1    A(2,1,7)              121.081          estimate D2E/DX2                !
 ! A2    A(2,1,13)             113.2044         estimate D2E/DX2                !
 ! A3    A(7,1,13)             120.8378         estimate D2E/DX2                !
 ! A4    A(1,2,3)              117.6834         estimate D2E/DX2                !
 ! A5    A(1,2,8)              101.694          estimate D2E/DX2                !
 ! A6    A(1,2,14)             107.5734         estimate D2E/DX2                !
 ! A7    A(3,2,8)              110.8262         estimate D2E/DX2                !
 ! A8    A(3,2,14)             108.3757         estimate D2E/DX2                !
 ! A9    A(8,2,14)             110.4631         estimate D2E/DX2                !
 ! A10   A(2,3,4)              111.8612         estimate D2E/DX2                !
 ! A11   A(2,3,9)              105.2899         estimate D2E/DX2                !
 ! A12   A(2,3,15)             110.0003         estimate D2E/DX2                !
 ! A13   A(4,3,9)              110.6901         estimate D2E/DX2                !
 ! A14   A(4,3,15)             109.3282         estimate D2E/DX2                !
 ! A15   A(9,3,15)             109.6001         estimate D2E/DX2                !
 ! A16   A(3,4,5)              111.7591         estimate D2E/DX2                !
 ! A17   A(3,4,10)             107.1299         estimate D2E/DX2                !
 ! A18   A(3,4,16)             108.5593         estimate D2E/DX2                !
 ! A19   A(5,4,10)             109.0558         estimate D2E/DX2                !
 ! A20   A(5,4,16)             110.1951         estimate D2E/DX2                !
 ! A21   A(10,4,16)            110.0912         estimate D2E/DX2                !
 ! A22   A(4,5,6)              114.254          estimate D2E/DX2                !
 ! A23   A(4,5,11)             112.4017         estimate D2E/DX2                !
 ! A24   A(4,5,17)             108.1011         estimate D2E/DX2                !
 ! A25   A(6,5,11)             104.9933         estimate D2E/DX2                !
 ! A26   A(6,5,17)             110.4034         estimate D2E/DX2                !
 ! A27   A(11,5,17)            106.4149         estimate D2E/DX2                !
 ! A28   A(5,6,12)             107.034          estimate D2E/DX2                !
 ! A29   A(5,6,23)             109.3409         estimate D2E/DX2                !
 ! A30   A(5,6,24)             109.1749         estimate D2E/DX2                !
 ! A31   A(12,6,23)            111.1527         estimate D2E/DX2                !
 ! A32   A(12,6,24)            111.4126         estimate D2E/DX2                !
 ! A33   A(23,6,24)            108.6838         estimate D2E/DX2                !
 ! A34   A(1,7,25)             138.8228         estimate D2E/DX2                !
 ! A35   A(2,8,19)             107.8035         estimate D2E/DX2                !
 ! A36   A(3,9,20)             108.0871         estimate D2E/DX2                !
 ! A37   A(4,10,21)            107.5693         estimate D2E/DX2                !
 ! A38   A(5,11,18)            112.1314         estimate D2E/DX2                !
 ! A39   A(6,12,22)            109.9823         estimate D2E/DX2                !
 ! D1    D(7,1,2,3)            139.4506         estimate D2E/DX2                !
 ! D2    D(7,1,2,8)            -99.3114         estimate D2E/DX2                !
 ! D3    D(7,1,2,14)            16.7953         estimate D2E/DX2                !
 ! D4    D(13,1,2,3)           -65.0956         estimate D2E/DX2                !
 ! D5    D(13,1,2,8)            56.1424         estimate D2E/DX2                !
 ! D6    D(13,1,2,14)          172.2491         estimate D2E/DX2                !
 ! D7    D(2,1,7,25)            85.5941         estimate D2E/DX2                !
 ! D8    D(13,1,7,25)          -68.0024         estimate D2E/DX2                !
 ! D9    D(1,2,3,4)            -64.4137         estimate D2E/DX2                !
 ! D10   D(1,2,3,9)            175.2986         estimate D2E/DX2                !
 ! D11   D(1,2,3,15)            57.2911         estimate D2E/DX2                !
 ! D12   D(8,2,3,4)            179.1979         estimate D2E/DX2                !
 ! D13   D(8,2,3,9)             58.9102         estimate D2E/DX2                !
 ! D14   D(8,2,3,15)           -59.0972         estimate D2E/DX2                !
 ! D15   D(14,2,3,4)            57.8322         estimate D2E/DX2                !
 ! D16   D(14,2,3,9)           -62.4555         estimate D2E/DX2                !
 ! D17   D(14,2,3,15)          179.537          estimate D2E/DX2                !
 ! D18   D(1,2,8,19)          -174.9035         estimate D2E/DX2                !
 ! D19   D(3,2,8,19)           -49.0064         estimate D2E/DX2                !
 ! D20   D(14,2,8,19)           71.1221         estimate D2E/DX2                !
 ! D21   D(2,3,4,5)             66.6049         estimate D2E/DX2                !
 ! D22   D(2,3,4,10)          -173.9971         estimate D2E/DX2                !
 ! D23   D(2,3,4,16)           -55.1376         estimate D2E/DX2                !
 ! D24   D(9,3,4,5)           -176.314          estimate D2E/DX2                !
 ! D25   D(9,3,4,10)           -56.9159         estimate D2E/DX2                !
 ! D26   D(9,3,4,16)            61.9435         estimate D2E/DX2                !
 ! D27   D(15,3,4,5)           -55.4859         estimate D2E/DX2                !
 ! D28   D(15,3,4,10)           63.9122         estimate D2E/DX2                !
 ! D29   D(15,3,4,16)         -177.2284         estimate D2E/DX2                !
 ! D30   D(2,3,9,20)           176.815          estimate D2E/DX2                !
 ! D31   D(4,3,9,20)            55.7583         estimate D2E/DX2                !
 ! D32   D(15,3,9,20)          -64.9082         estimate D2E/DX2                !
 ! D33   D(3,4,5,6)           -163.2994         estimate D2E/DX2                !
 ! D34   D(3,4,5,11)           -43.7856         estimate D2E/DX2                !
 ! D35   D(3,4,5,17)            73.3637         estimate D2E/DX2                !
 ! D36   D(10,4,5,6)            78.4459         estimate D2E/DX2                !
 ! D37   D(10,4,5,11)         -162.0403         estimate D2E/DX2                !
 ! D38   D(10,4,5,17)          -44.891          estimate D2E/DX2                !
 ! D39   D(16,4,5,6)           -42.5043         estimate D2E/DX2                !
 ! D40   D(16,4,5,11)           77.0095         estimate D2E/DX2                !
 ! D41   D(16,4,5,17)         -165.8412         estimate D2E/DX2                !
 ! D42   D(3,4,10,21)         -175.5804         estimate D2E/DX2                !
 ! D43   D(5,4,10,21)          -54.4583         estimate D2E/DX2                !
 ! D44   D(16,4,10,21)          66.5553         estimate D2E/DX2                !
 ! D45   D(4,5,6,12)           -61.4157         estimate D2E/DX2                !
 ! D46   D(4,5,6,23)            59.0833         estimate D2E/DX2                !
 ! D47   D(4,5,6,24)           177.867          estimate D2E/DX2                !
 ! D48   D(11,5,6,12)          174.9842         estimate D2E/DX2                !
 ! D49   D(11,5,6,23)          -64.5168         estimate D2E/DX2                !
 ! D50   D(11,5,6,24)           54.2669         estimate D2E/DX2                !
 ! D51   D(17,5,6,12)           60.6691         estimate D2E/DX2                !
 ! D52   D(17,5,6,23)         -178.832          estimate D2E/DX2                !
 ! D53   D(17,5,6,24)          -60.0482         estimate D2E/DX2                !
 ! D54   D(4,5,11,18)          -92.0907         estimate D2E/DX2                !
 ! D55   D(6,5,11,18)           32.6854         estimate D2E/DX2                !
 ! D56   D(17,5,11,18)         149.7601         estimate D2E/DX2                !
 ! D57   D(5,6,12,22)          171.654          estimate D2E/DX2                !
 ! D58   D(23,6,12,22)          52.3165         estimate D2E/DX2                !
 ! D59   D(24,6,12,22)         -69.062          estimate D2E/DX2                !
 --------------------------------------------------------------------------------
 Trust Radius=3.00D-01 FncErr=1.00D-07 GrdErr=1.00D-06
 Number of steps in this run=    132 maximum allowed number of steps=    150.
 GradGradGradGradGradGradGradGradGradGradGradGradGradGradGradGradGradGrad

                          Input orientation:                          
 ---------------------------------------------------------------------
 Center     Atomic      Atomic             Coordinates (Angstroms)
 Number     Number       Type             X           Y           Z
 ---------------------------------------------------------------------
      1          6           0       -1.122353   -1.075091    0.316415
      2          6           0       -1.344630    0.437219    0.212376
      3          6           0       -0.600295    1.190918   -0.892104
      4          6           0        0.912606    1.145678   -0.691158
      5          6           0        1.466360   -0.277541   -0.854573
      6          6           0        2.856359   -0.472156   -0.290086
      7          8           0       -1.004937   -1.629731    1.417309
      8          8           0       -2.751660    0.508909    0.013951
      9          8           0       -1.078864    2.534179   -0.819676
     10          8           0        1.491492    1.985141   -1.680627
     11          8           0        0.663004   -1.250469   -0.197972
     12          8           0        3.717118    0.397116   -0.999662
     13          1           0       -1.496107   -1.628932   -0.556655
     14          1           0       -1.070532    0.879419    1.177940
     15          1           0       -0.849633    0.763464   -1.872120
     16          1           0        1.143759    1.529718    0.311801
     17          1           0        1.448386   -0.528592   -1.916852
     18          1           0        0.963449   -1.420919    0.709406
     19          1           0       -2.980848    1.434122   -0.145224
     20          1           0       -0.595983    3.059972   -1.470035
     21          1           0        2.454414    1.906270   -1.604282
     22          1           0        4.588593    0.404828   -0.589180
     23          1           0        2.849914   -0.235195    0.782195
     24          1           0        3.152411   -1.518468   -0.416227
     25         11           0       -2.273701   -2.469772    2.969896
 ---------------------------------------------------------------------
                    Distance matrix (angstroms):
                    1          2          3          4          5
     1  C    0.000000
     2  C    1.532094   0.000000
     3  C    2.620660   1.530351   0.000000
     4  C    3.176173   2.532470   1.526858   0.000000
     5  C    2.951056   3.090457   2.535516   1.535871   0.000000
     6  C    4.069585   4.327556   3.882872   2.560551   1.512818
     7  O    1.238297   2.416513   3.667858   3.978128   3.619002
     8  O    2.292418   1.422760   2.431963   3.785432   4.377731
     9  O    3.784101   2.352234   1.427804   2.431132   3.792776
    10  O    4.492815   3.744744   2.372368   1.420865   2.408885
    11  O    1.866240   2.654670   2.835157   2.459076   1.422355
    12  O    5.226847   5.204992   4.391098   2.919042   2.354172
    13  H    1.099401   2.209827   2.977677   3.676744   3.269744
    14  H    2.136591   1.096806   2.145515   2.738112   3.450433
    15  H    2.871297   2.167160   1.097870   2.155515   2.735492
    16  H    3.452581   2.719470   2.146135   1.098565   2.175014
    17  H    3.448890   3.642436   2.864248   2.143027   1.091690
    18  H    2.150490   3.004487   3.439742   2.924309   2.001565
    19  H    3.156464   1.949077   2.506793   3.942110   4.817741
    20  H    4.535109   3.204655   1.956371   2.558713   3.971278
    21  H    5.036949   4.459943   3.217168   1.946655   2.511443
    22  H    5.968682   5.987209   5.256830   3.751285   3.206930
    23  H    4.086720   4.286144   4.091579   2.798346   2.143601
    24  H    4.359697   4.944010   4.652960   3.491416   2.138882
    25  Na   3.211183   4.113111   5.578170   6.052053   5.781046
                    6          7          8          9         10
     6  C    0.000000
     7  O    4.377760   0.000000
     8  O    5.701298   3.097456   0.000000
     9  O    4.980411   4.727337   2.755884   0.000000
    10  O    3.136044   5.375562   4.801582   2.765757   0.000000
    11  O    2.329176   2.352658   3.847110   4.212384   3.654289
    12  O    1.414227   5.678702   6.548664   5.253654   2.817614
    13  H    4.511447   2.034154   2.544085   4.192227   4.821886
    14  H    4.404807   2.521395   2.078061   2.593987   3.994746
    15  H    4.214732   4.070853   2.690682   2.072587   2.647646
    16  H    2.702363   3.977582   4.037952   2.688724   2.073185
    17  H    2.152194   4.283448   4.737594   4.119630   2.525176
    18  H    2.341419   2.102207   4.243811   4.706584   4.194321
    19  H    6.142301   3.966476   0.966376   2.298381   4.760558
    20  H    5.078078   5.522437   3.654734   0.965712   2.357363
    21  H    2.746922   5.796587   5.628011   3.673408   0.969158
    22  H    1.964483   6.281163   7.365726   6.058658   3.644267
    23  H    1.098171   4.148250   5.702764   5.066628   3.583391
    24  H    1.094681   4.545083   6.257265   5.872853   4.078313
    25  Na   6.398083   2.173927   4.223576   6.389681   7.459912
                   11         12         13         14         15
    11  O    0.000000
    12  O    3.561580   0.000000
    13  H    2.221182   5.610601   0.000000
    14  H    3.071596   5.281681   3.079246   0.000000
    15  H    3.024362   4.663755   2.805697   3.060246   0.000000
    16  H    2.867130   3.102402   4.207158   2.464989   3.054549
    17  H    2.022988   2.616356   3.425044   4.231451   2.636722
    18  H    0.970904   3.716027   2.774094   3.106148   3.837066
    19  H    4.526308   6.831412   3.428707   2.389093   2.823832
    20  H    4.667236   5.090667   4.861101   3.462915   2.345199
    21  H    3.892539   2.058527   5.403868   4.606563   3.506347
    22  H    4.278236   0.963340   6.415669   5.947575   5.599005
    23  H    2.602707   2.080114   4.756356   4.094982   4.661476
    24  H    2.513286   2.080565   4.651950   5.111211   4.831480
    25  Na   4.488466   7.737335   3.707860   3.984445   5.993906
                   16         17         18         19         20
    16  H    0.000000
    17  H    3.048989   0.000000
    18  H    2.982760   2.815785   0.000000
    19  H    4.150951   5.158394   4.943595   0.000000
    20  H    2.922896   4.154140   5.221128   3.175861   0.000000
    21  H    2.351804   2.652988   4.318138   5.647464   3.264042
    22  H    3.734170   3.534811   4.261613   7.651992   5.891139
    23  H    2.499431   3.055359   2.229347   6.135512   5.273032
    24  H    3.722384   2.476980   2.463355   6.812349   6.010248
    25  Na   5.894101   6.442237   4.085223   5.044246   7.287372
                   21         22         23         24         25
    21  H    0.000000
    22  H    2.799907   0.000000
    23  H    3.230722   2.305060   0.000000
    24  H    3.691545   2.406574   1.781715   0.000000
    25  Na   7.901134   8.247510   6.002566   6.466336   0.000000
 Symmetry turned off by external request.
 Stoichiometry    C6H12NaO6(1+)
 Framework group  C1[X(C6H12NaO6)]
 Deg. of freedom    69
 Full point group                 C1      NOp   1
 Rotational constants (GHZ):      0.9706170      0.4566285      0.3274829
 Standard basis: 6-311+G(2df,p) (5D, 7F)
 Integral buffers will be    131072 words long.
 Raffenetti 2 integral format.
 Two-electron integral symmetry is turned off.
   522 basis functions,   786 primitive gaussians,   587 cartesian basis functions
    53 alpha electrons       53 beta electrons
       nuclear repulsion energy       937.8540478680 Hartrees.
 NAtoms=   25 NActive=   25 NUniq=   25 SFac= 1.00D+00 NAtFMM=   50 NAOKFM=F Big=F
 ------------------------------------------------------------------------------
 Polarizable Continuum Model (PCM)
 =================================
 Model                : PCM.
 Atomic radii         : UFF (Universal Force Field).
 Polarization charges : Total charges.
 Charge compensation  : None.
 Solution method      : Matrix inversion.
 Cavity type          : Scaled VdW (van der Waals Surface) (Alpha=1.100).
 Cavity algorithm     : GePol (No added spheres)
                        Default sphere list used, NSphG=   25.
                        Lebedev-Laikov grids with approx.  5.0 points / Ang**2.
                        Smoothing algorithm: Karplus/York (Gamma=1.0000).
                        Polarization charges: spherical gaussians, with
                                              point-specific exponents (IZeta= 3).
                        Self-potential: point-specific (ISelfS= 7).
                        Self-field    : sphere-specific E.n sum rule (ISelfD= 2).
 1st derivatives      : Analytical E(r).r(x)/FMM algorithm (CHGder, D1EAlg=3).
                        Cavity 1st derivative terms included.
 Solvent              : Ethanol, Eps=  24.852000 Eps(inf)=   1.852593
 ------------------------------------------------------------------------------
 One-electron integrals computed using PRISM.
 NBasis=   522 RedAO= T  NBF=   522
 NBsUse=   522 1.00D-06 NBFU=   522
 Harris functional with IExCor=  402 diagonalized for initial guess.
 ExpMin= 7.60D-03 ExpMax= 3.62D+04 ExpMxC= 1.30D+03 IAcc=3 IRadAn=         5 AccDes= 0.00D+00
 HarFok:  IExCor=  402 AccDes= 0.00D+00 IRadAn=         5 IDoV= 1
 ScaDFX=  1.000000  1.000000  1.000000  1.000000
 FoFCou: FMM=F IPFlag=           0 FMFlag=      100000 FMFlg1=           0
         NFxFlg=           0 DoJE=T BraDBF=F KetDBF=T FulRan=T
         Omega=  0.000000  0.000000  1.000000  0.000000  0.000000 ICntrl=     500 IOpCl=  0
         NMat0=    1 NMatS0=    1 NMatT0=    0 NMatD0=    1 NMtDS0=    0 NMtDT0=    0
         I1Cent=           4 NGrid=           0.
 Symmetry not used in FoFCou.
 Requested convergence on RMS density matrix=1.00D-08 within 128 cycles.
 Requested convergence on MAX density matrix=1.00D-06.
 Requested convergence on             energy=1.00D-06.
 No special actions if energy rises.
 Error on total polarization charges =  0.01203
 SCF Done:  E(RB3LYP) =  -849.653889360     A.U. after   13 cycles
             Convg  =    0.3147D-08             -V/T =  2.0034
 QCSCF skips out because SCF is already converged.

 **********************************************************************

            Population analysis using the SCF density.

 **********************************************************************

 Alpha  occ. eigenvalues --  -38.42315 -19.19560 -19.15641 -19.14843 -19.14784
 Alpha  occ. eigenvalues --  -19.14389 -19.11603 -10.29252 -10.25512 -10.24652
 Alpha  occ. eigenvalues --  -10.24613 -10.24559 -10.24420  -2.18046  -1.11868
 Alpha  occ. eigenvalues --   -1.11709  -1.11699  -1.10932  -1.06746  -1.06267
 Alpha  occ. eigenvalues --   -1.05101  -1.03965  -1.03142  -0.81228  -0.78214
 Alpha  occ. eigenvalues --   -0.71573  -0.67123  -0.64364  -0.60928  -0.57773
 Alpha  occ. eigenvalues --   -0.55970  -0.54510  -0.53659  -0.52341  -0.49972
 Alpha  occ. eigenvalues --   -0.49200  -0.47656  -0.46140  -0.45479  -0.44756
 Alpha  occ. eigenvalues --   -0.43345  -0.42649  -0.40764  -0.38452  -0.38079
 Alpha  occ. eigenvalues --   -0.36558  -0.35754  -0.33204  -0.31523  -0.30501
 Alpha  occ. eigenvalues --   -0.30135  -0.30017  -0.27713
 Alpha virt. eigenvalues --   -0.02732  -0.01665  -0.00877  -0.00271  -0.00206
 Alpha virt. eigenvalues --    0.00356   0.01500   0.01758   0.02201   0.02731
 Alpha virt. eigenvalues --    0.03161   0.03493   0.03973   0.04417   0.04947
 Alpha virt. eigenvalues --    0.05240   0.06390   0.06787   0.07388   0.07487
 Alpha virt. eigenvalues --    0.08260   0.08976   0.09707   0.10166   0.10773
 Alpha virt. eigenvalues --    0.11001   0.11474   0.11845   0.12336   0.13027
 Alpha virt. eigenvalues --    0.13098   0.13500   0.14016   0.14255   0.15032
 Alpha virt. eigenvalues --    0.15885   0.16292   0.16484   0.17198   0.17826
 Alpha virt. eigenvalues --    0.18069   0.18878   0.19339   0.19913   0.20279
 Alpha virt. eigenvalues --    0.20596   0.20862   0.21428   0.21571   0.21910
 Alpha virt. eigenvalues --    0.22974   0.23128   0.23286   0.24603   0.24742
 Alpha virt. eigenvalues --    0.25166   0.25527   0.26144   0.26664   0.27335
 Alpha virt. eigenvalues --    0.27739   0.27841   0.28010   0.28360   0.28760
 Alpha virt. eigenvalues --    0.29353   0.30422   0.30605   0.31366   0.31959
 Alpha virt. eigenvalues --    0.32601   0.33105   0.33547   0.33753   0.34319
 Alpha virt. eigenvalues --    0.34801   0.35799   0.36244   0.37498   0.37826
 Alpha virt. eigenvalues --    0.38482   0.38757   0.39571   0.39784   0.40725
 Alpha virt. eigenvalues --    0.41658   0.43021   0.43366   0.44089   0.45143
 Alpha virt. eigenvalues --    0.46744   0.47885   0.49421   0.50244   0.51041
 Alpha virt. eigenvalues --    0.52083   0.53463   0.53906   0.54267   0.55284
 Alpha virt. eigenvalues --    0.56684   0.56814   0.57707   0.58595   0.58624
 Alpha virt. eigenvalues --    0.59021   0.59834   0.60767   0.61106   0.62322
 Alpha virt. eigenvalues --    0.62936   0.63675   0.64316   0.64797   0.66215
 Alpha virt. eigenvalues --    0.66517   0.68965   0.69069   0.69472   0.70090
 Alpha virt. eigenvalues --    0.71663   0.71987   0.72755   0.73161   0.74286
 Alpha virt. eigenvalues --    0.74959   0.76703   0.78311   0.79465   0.79846
 Alpha virt. eigenvalues --    0.82975   0.84362   0.85906   0.87664   0.89082
 Alpha virt. eigenvalues --    0.90402   0.92076   0.92532   0.93171   0.93372
 Alpha virt. eigenvalues --    0.93988   0.94872   0.95582   0.97238   0.98928
 Alpha virt. eigenvalues --    0.99828   1.00519   1.02039   1.02323   1.03178
 Alpha virt. eigenvalues --    1.03778   1.05469   1.06116   1.06941   1.07740
 Alpha virt. eigenvalues --    1.08992   1.10615   1.11658   1.12571   1.13495
 Alpha virt. eigenvalues --    1.14613   1.15625   1.16966   1.17190   1.19203
 Alpha virt. eigenvalues --    1.19908   1.20627   1.21340   1.22577   1.24210
 Alpha virt. eigenvalues --    1.26420   1.26806   1.27722   1.28388   1.30428
 Alpha virt. eigenvalues --    1.30988   1.33326   1.33648   1.35055   1.36455
 Alpha virt. eigenvalues --    1.36975   1.38860   1.39542   1.40332   1.41813
 Alpha virt. eigenvalues --    1.42466   1.46219   1.48355   1.51125   1.51485
 Alpha virt. eigenvalues --    1.52317   1.52793   1.55230   1.56891   1.57425
 Alpha virt. eigenvalues --    1.58112   1.59879   1.60951   1.64303   1.66412
 Alpha virt. eigenvalues --    1.66754   1.68603   1.70640   1.71406   1.73416
 Alpha virt. eigenvalues --    1.76389   1.76579   1.79370   1.79638   1.81077
 Alpha virt. eigenvalues --    1.82616   1.84616   1.86639   1.88961   1.91216
 Alpha virt. eigenvalues --    1.92803   1.95278   1.96397   1.96840   1.98072
 Alpha virt. eigenvalues --    2.02600   2.03801   2.06019   2.06496   2.08358
 Alpha virt. eigenvalues --    2.10546   2.11215   2.12531   2.14543   2.16030
 Alpha virt. eigenvalues --    2.16348   2.18293   2.20183   2.20834   2.22348
 Alpha virt. eigenvalues --    2.24796   2.26494   2.27555   2.28413   2.30274
 Alpha virt. eigenvalues --    2.31032   2.32169   2.35712   2.35985   2.37177
 Alpha virt. eigenvalues --    2.37382   2.40309   2.40745   2.42048   2.43174
 Alpha virt. eigenvalues --    2.44988   2.45242   2.47583   2.50221   2.52430
 Alpha virt. eigenvalues --    2.54979   2.56321   2.58493   2.59241   2.60173
 Alpha virt. eigenvalues --    2.61861   2.65517   2.67259   2.68023   2.69544
 Alpha virt. eigenvalues --    2.70490   2.74364   2.76419   2.82345   2.84259
 Alpha virt. eigenvalues --    2.86508   2.88615   2.92024   2.93365   2.93592
 Alpha virt. eigenvalues --    2.95948   2.96679   2.97848   2.99244   3.01454
 Alpha virt. eigenvalues --    3.02924   3.03573   3.05296   3.06535   3.09971
 Alpha virt. eigenvalues --    3.13378   3.15385   3.16206   3.19646   3.21940
 Alpha virt. eigenvalues --    3.23955   3.26537   3.27581   3.31361   3.32838
 Alpha virt. eigenvalues --    3.34304   3.35363   3.36175   3.37425   3.39454
 Alpha virt. eigenvalues --    3.41109   3.41550   3.44874   3.45961   3.47562
 Alpha virt. eigenvalues --    3.49476   3.51674   3.52324   3.53513   3.55641
 Alpha virt. eigenvalues --    3.57351   3.58535   3.59804   3.62302   3.63701
 Alpha virt. eigenvalues --    3.64243   3.66917   3.68134   3.70441   3.70675
 Alpha virt. eigenvalues --    3.73750   3.75956   3.77150   3.77872   3.78582
 Alpha virt. eigenvalues --    3.80855   3.82436   3.83592   3.84996   3.87760
 Alpha virt. eigenvalues --    3.89117   3.90351   3.91855   3.94634   3.97594
 Alpha virt. eigenvalues --    3.98052   4.01682   4.03810   4.08136   4.11706
 Alpha virt. eigenvalues --    4.14330   4.16075   4.18242   4.19619   4.23913
 Alpha virt. eigenvalues --    4.29071   4.31822   4.35352   4.35765   4.38956
 Alpha virt. eigenvalues --    4.42026   4.43768   4.50349   4.54156   4.54557
 Alpha virt. eigenvalues --    4.59191   4.61132   4.64492   4.66118   4.71185
 Alpha virt. eigenvalues --    4.88359   4.91297   4.95139   4.99754   5.05656
 Alpha virt. eigenvalues --    5.06967   5.08218   5.09749   5.11021   5.12744
 Alpha virt. eigenvalues --    5.13195   5.14758   5.15712   5.15950   5.16385
 Alpha virt. eigenvalues --    5.17391   5.18417   5.18699   5.19997   5.21090
 Alpha virt. eigenvalues --    5.22482   5.23660   5.24610   5.28087   5.29238
 Alpha virt. eigenvalues --    5.31083   5.31745   5.33423   5.34305   5.35230
 Alpha virt. eigenvalues --    5.35855   5.36512   5.39296   5.40995   5.41114
 Alpha virt. eigenvalues --    5.42115   5.43757   5.44529   5.46866   5.47577
 Alpha virt. eigenvalues --    5.50269   5.54006   5.67236   5.70238   5.71729
 Alpha virt. eigenvalues --    5.72494   5.72936   5.78899   5.79860   5.84652
 Alpha virt. eigenvalues --    5.85748   5.88423   5.95225   6.23213   6.26843
 Alpha virt. eigenvalues --    6.28409   6.30514   6.31059   6.33002   6.40697
 Alpha virt. eigenvalues --    6.46677   6.48881   6.53026   6.53365   6.58498
 Alpha virt. eigenvalues --    6.89396   6.91289   6.92357   6.94776   6.95997
 Alpha virt. eigenvalues --    6.98390   7.01721   7.08631   7.12035   7.15377
 Alpha virt. eigenvalues --    7.16921   7.17710   7.19308   7.21748   7.23354
 Alpha virt. eigenvalues --    7.25185   7.29009   7.34106   7.38342   7.42445
 Alpha virt. eigenvalues --    7.48488   7.50399   7.53061   7.55324   7.57784
 Alpha virt. eigenvalues --    7.59858   7.62240   7.63972   7.66189   7.68785
 Alpha virt. eigenvalues --    7.70322  24.26266  24.34398  24.38550  24.43273
 Alpha virt. eigenvalues --   24.48845  24.59887  49.96553  49.97037  50.01697
 Alpha virt. eigenvalues --   50.02376  50.05843  50.13867  96.57615
          Condensed to atoms (all electrons):
              1          2          3          4          5          6
     1  C    5.904801  -0.369359  -0.068220   0.280023  -0.320681  -0.011687
     2  C   -0.369359   6.446381  -0.491723  -0.316038   0.291504   0.043636
     3  C   -0.068220  -0.491723   7.605073  -1.223303   0.123004  -0.213759
     4  C    0.280023  -0.316038  -1.223303   7.468778  -1.164868   0.331020
     5  C   -0.320681   0.291504   0.123004  -1.164868   7.588005  -0.606601
     6  C   -0.011687   0.043636  -0.213759   0.331020  -0.606601   5.768281
     7  O    0.326670  -0.145551   0.008195   0.004251  -0.013495  -0.003927
     8  O   -0.136332   0.321928  -0.076668   0.010713  -0.001764  -0.000562
     9  O    0.028209  -0.142893   0.247199  -0.021428   0.014353  -0.002005
    10  O    0.010773  -0.011613  -0.178196   0.379391  -0.103279  -0.006066
    11  O    0.064983  -0.087086  -0.127173   0.089587  -0.040452  -0.020894
    12  O   -0.001147  -0.002625   0.051760  -0.073162   0.050777   0.059204
    13  H    0.429469  -0.029878  -0.019097   0.006095  -0.007229  -0.001462
    14  H   -0.100681   0.424479   0.004179   0.025967  -0.016406   0.000647
    15  H   -0.005795  -0.093010   0.474852  -0.038344   0.017203  -0.002963
    16  H   -0.004987  -0.012579  -0.062377   0.459660  -0.034007  -0.014466
    17  H   -0.006022   0.006309  -0.013761  -0.080806   0.483897  -0.046835
    18  H   -0.003376   0.008963   0.026363  -0.039611   0.087432  -0.055173
    19  H   -0.010092   0.022215  -0.047335   0.018058   0.005199   0.000575
    20  H   -0.000903  -0.003784   0.026567  -0.036848   0.006982   0.000676
    21  H   -0.001605  -0.000948   0.009845  -0.006314   0.031403  -0.027598
    22  H   -0.000320   0.000644  -0.003824   0.018733  -0.051183   0.042429
    23  H    0.004056  -0.001842  -0.004005  -0.031320   0.004100   0.401251
    24  H   -0.002150   0.003803  -0.000444   0.026863  -0.166337   0.514805
    25  Na  -0.046607  -0.011896  -0.019180   0.009347   0.002553  -0.002382
              7          8          9         10         11         12
     1  C    0.326670  -0.136332   0.028209   0.010773   0.064983  -0.001147
     2  C   -0.145551   0.321928  -0.142893  -0.011613  -0.087086  -0.002625
     3  C    0.008195  -0.076668   0.247199  -0.178196  -0.127173   0.051760
     4  C    0.004251   0.010713  -0.021428   0.379391   0.089587  -0.073162
     5  C   -0.013495  -0.001764   0.014353  -0.103279  -0.040452   0.050777
     6  C   -0.003927  -0.000562  -0.002005  -0.006066  -0.020894   0.059204
     7  O    8.306297   0.008148  -0.001295  -0.000102  -0.023424   0.000168
     8  O    0.008148   8.050649   0.001809  -0.000679   0.007405  -0.000036
     9  O   -0.001295   0.001809   8.087914  -0.001397   0.000724  -0.000035
    10  O   -0.000102  -0.000679  -0.001397   8.094650   0.005298   0.001142
    11  O   -0.023424   0.007405   0.000724   0.005298   8.020895  -0.000442
    12  O    0.000168  -0.000036  -0.000035   0.001142  -0.000442   8.183423
    13  H   -0.067562   0.005518  -0.000413   0.000066  -0.035734   0.000024
    14  H    0.008362  -0.046568  -0.000183  -0.000412   0.009269  -0.000067
    15  H   -0.000102  -0.000263  -0.054835   0.001889   0.003372  -0.000239
    16  H   -0.000929   0.000469  -0.000699  -0.045383   0.012831   0.001335
    17  H   -0.001425   0.000133   0.000393   0.005410  -0.039516   0.000277
    18  H    0.013987  -0.000530  -0.000042  -0.000552   0.276609   0.000697
    19  H    0.000099   0.274491   0.013808   0.000148  -0.000256   0.000000
    20  H    0.000063   0.000599   0.272251   0.015635   0.000697   0.000033
    21  H   -0.000018   0.000019   0.000378   0.284338  -0.001877  -0.006317
    22  H    0.000009   0.000000  -0.000006  -0.000087   0.000017   0.249912
    23  H   -0.000777   0.000001   0.000113   0.000812   0.003031  -0.040415
    24  H    0.000380  -0.000012   0.000012  -0.000526   0.015836  -0.037472
    25  Na   0.053815   0.001876  -0.000050  -0.000074   0.004069   0.000126
             13         14         15         16         17         18
     1  C    0.429469  -0.100681  -0.005795  -0.004987  -0.006022  -0.003376
     2  C   -0.029878   0.424479  -0.093010  -0.012579   0.006309   0.008963
     3  C   -0.019097   0.004179   0.474852  -0.062377  -0.013761   0.026363
     4  C    0.006095   0.025967  -0.038344   0.459660  -0.080806  -0.039611
     5  C   -0.007229  -0.016406   0.017203  -0.034007   0.483897   0.087432
     6  C   -0.001462   0.000647  -0.002963  -0.014466  -0.046835  -0.055173
     7  O   -0.067562   0.008362  -0.000102  -0.000929  -0.001425   0.013987
     8  O    0.005518  -0.046568  -0.000263   0.000469   0.000133  -0.000530
     9  O   -0.000413  -0.000183  -0.054835  -0.000699   0.000393  -0.000042
    10  O    0.000066  -0.000412   0.001889  -0.045383   0.005410  -0.000552
    11  O   -0.035734   0.009269   0.003372   0.012831  -0.039516   0.276609
    12  O    0.000024  -0.000067  -0.000239   0.001335   0.000277   0.000697
    13  H    0.549989   0.005281   0.001204  -0.000108   0.000513   0.002004
    14  H    0.005281   0.544619   0.005169   0.000667  -0.000011  -0.000789
    15  H    0.001204   0.005169   0.537813   0.005104   0.000916  -0.000443
    16  H   -0.000108   0.000667   0.005104   0.547941   0.005345  -0.002197
    17  H    0.000513  -0.000011   0.000916   0.005345   0.517387   0.001508
    18  H    0.002004  -0.000789  -0.000443  -0.002197   0.001508   0.396771
    19  H   -0.000681  -0.002682   0.001995   0.000107  -0.000014   0.000008
    20  H    0.000030  -0.000192  -0.001939   0.001425   0.000039  -0.000035
    21  H   -0.000004   0.000032  -0.000494  -0.005355  -0.001049   0.000174
    22  H   -0.000001  -0.000005  -0.000012   0.000074   0.000070  -0.000070
    23  H   -0.000026   0.000050   0.000014   0.003334   0.005478   0.000938
    24  H    0.000001  -0.000002   0.000002  -0.000174  -0.006351  -0.001162
    25  Na   0.002564   0.001150   0.000259   0.000012  -0.000048  -0.002159
             19         20         21         22         23         24
     1  C   -0.010092  -0.000903  -0.001605  -0.000320   0.004056  -0.002150
     2  C    0.022215  -0.003784  -0.000948   0.000644  -0.001842   0.003803
     3  C   -0.047335   0.026567   0.009845  -0.003824  -0.004005  -0.000444
     4  C    0.018058  -0.036848  -0.006314   0.018733  -0.031320   0.026863
     5  C    0.005199   0.006982   0.031403  -0.051183   0.004100  -0.166337
     6  C    0.000575   0.000676  -0.027598   0.042429   0.401251   0.514805
     7  O    0.000099   0.000063  -0.000018   0.000009  -0.000777   0.000380
     8  O    0.274491   0.000599   0.000019   0.000000   0.000001  -0.000012
     9  O    0.013808   0.272251   0.000378  -0.000006   0.000113   0.000012
    10  O    0.000148   0.015635   0.284338  -0.000087   0.000812  -0.000526
    11  O   -0.000256   0.000697  -0.001877   0.000017   0.003031   0.015836
    12  O    0.000000   0.000033  -0.006317   0.249912  -0.040415  -0.037472
    13  H   -0.000681   0.000030  -0.000004  -0.000001  -0.000026   0.000001
    14  H   -0.002682  -0.000192   0.000032  -0.000005   0.000050  -0.000002
    15  H    0.001995  -0.001939  -0.000494  -0.000012   0.000014   0.000002
    16  H    0.000107   0.001425  -0.005355   0.000074   0.003334  -0.000174
    17  H   -0.000014   0.000039  -0.001049   0.000070   0.005478  -0.006351
    18  H    0.000008  -0.000035   0.000174  -0.000070   0.000938  -0.001162
    19  H    0.402975   0.000005   0.000006   0.000000  -0.000001   0.000000
    20  H    0.000005   0.397112   0.000147  -0.000002  -0.000002  -0.000001
    21  H    0.000006   0.000147   0.385651   0.000226   0.001074  -0.000906
    22  H    0.000000  -0.000002   0.000226   0.420231  -0.006453  -0.002602
    23  H   -0.000001  -0.000002   0.001074  -0.006453   0.536034  -0.045493
    24  H    0.000000  -0.000001  -0.000906  -0.002602  -0.045493   0.531205
    25  Na  -0.000122  -0.000014   0.000001  -0.000040  -0.000046  -0.000048
             25
     1  C   -0.046607
     2  C   -0.011896
     3  C   -0.019180
     4  C    0.009347
     5  C    0.002553
     6  C   -0.002382
     7  O    0.053815
     8  O    0.001876
     9  O   -0.000050
    10  O   -0.000074
    11  O    0.004069
    12  O    0.000126
    13  H    0.002564
    14  H    0.001150
    15  H    0.000259
    16  H    0.000012
    17  H   -0.000048
    18  H   -0.002159
    19  H   -0.000122
    20  H   -0.000014
    21  H    0.000001
    22  H   -0.000040
    23  H   -0.000046
    24  H   -0.000048
    25  Na  10.093501
 Mulliken atomic charges:
              1
     1  C    0.040979
     2  C    0.150962
     3  C   -0.027973
     4  C   -0.096442
     5  C   -0.180108
     6  C   -0.146146
     7  O   -0.471839
     8  O   -0.420346
     9  O   -0.441882
    10  O   -0.451186
    11  O   -0.137770
    12  O   -0.436923
    13  H    0.159435
    14  H    0.138125
    15  H    0.148648
    16  H    0.144958
    17  H    0.168164
    18  H    0.290685
    19  H    0.321493
    20  H    0.321459
    21  H    0.339191
    22  H    0.332258
    23  H    0.170094
    24  H    0.170773
    25  Na   0.913393
 Sum of Mulliken atomic charges =   1.00000
 Mulliken charges with hydrogens summed into heavy atoms:
              1
     1  C    0.200413
     2  C    0.289087
     3  C    0.120674
     4  C    0.048516
     5  C   -0.011945
     6  C    0.194721
     7  O   -0.471839
     8  O   -0.098853
     9  O   -0.120423
    10  O   -0.111995
    11  O    0.152914
    12  O   -0.104665
    25  Na   0.913393
 Sum of Mulliken charges with hydrogens summed into heavy atoms =   1.00000
 Electronic spatial extent (au):  <R**2>=           3075.3188
 Charge=              1.0000 electrons
 Dipole moment (field-independent basis, Debye):
    X=             -2.5011    Y=             -9.6800    Z=             11.6805  Tot=             15.3750
 Quadrupole moment (field-independent basis, Debye-Ang):
   XX=            -36.5988   YY=            -51.5507   ZZ=            -39.3004
   XY=             19.6977   XZ=            -22.6027   YZ=            -28.5919
 Traceless Quadrupole moment (field-independent basis, Debye-Ang):
   XX=              5.8845   YY=             -9.0674   ZZ=              3.1830
   XY=             19.6977   XZ=            -22.6027   YZ=            -28.5919
 Octapole moment (field-independent basis, Debye-Ang**2):
  XXX=             13.8838  YYY=           -101.3307  ZZZ=            170.6455  XYY=            -72.9931
  XXY=            -63.1590  XXZ=             93.2823  XZZ=           -109.8449  YZZ=           -108.3083
  YYZ=             88.8550  XYZ=             73.6263
 Hexadecapole moment (field-independent basis, Debye-Ang**3):
 XXXX=          -1143.9564 YYYY=           -753.6040 ZZZZ=           -242.1393 XXXY=             79.1080
 XXXZ=             87.5113 YYYX=             94.3075 YYYZ=             18.7239 ZZZX=            -20.8922
 ZZZY=            -47.2952 XXYY=           -261.6056 XXZZ=           -197.9280 YYZZ=             -1.6269
 XXYZ=            -95.6396 YYXZ=            -97.9283 ZZXY=            195.7975
 N-N= 9.378540478680D+02 E-N=-3.866772887976D+03  KE= 8.467521492649D+02
 D1PCM: PCM CHGder 1st derivatives, ID1Alg=3 FixD1E=F DoIter=F DoCFld=F I1PDM=0.
 Calling FoFJK, ICntrl=      2127 FMM=F ISym2X=0 I1Cent= 0 IOpClX= 0 NMat=1 NMatS=1 NMatT=0.
 -------------------------------------------------------------------
 Center     Atomic                   Forces (Hartrees/Bohr)
 Number     Number              X              Y              Z
 -------------------------------------------------------------------
      1        6          -0.010632783   -0.000010076    0.004133952
      2        6          -0.001756103    0.000161325    0.002045533
      3        6           0.000645655   -0.002540994    0.001191618
      4        6           0.001259238   -0.001307609   -0.000275615
      5        6           0.004315582   -0.000267874   -0.002201162
      6        6           0.004763074    0.002409829   -0.002575879
      7        8          -0.010954578    0.001298666    0.002605873
      8        8          -0.002075412    0.003438117    0.000009074
      9        8           0.000538693   -0.003055610    0.000047737
     10        8          -0.000886697    0.001665794    0.000134941
     11        8           0.009222805   -0.004486393   -0.006279210
     12        8           0.006562017    0.004469374   -0.001527810
     13        1          -0.000383395   -0.000081241    0.000202395
     14        1          -0.000153880    0.000056652    0.000150110
     15        1          -0.000004242   -0.000301722    0.000155325
     16        1           0.000128017   -0.000148313   -0.000011722
     17        1           0.000449611    0.000184924   -0.000239931
     18        1           0.000567264    0.000028305   -0.000360757
     19        1           0.000051373    0.000192772   -0.000353893
     20        1           0.000096211   -0.000226855    0.000020280
     21        1          -0.000043766    0.000190496   -0.000071523
     22        1           0.000400937    0.000233526   -0.000071755
     23        1           0.000326115    0.000139263   -0.000198306
     24        1           0.000491718    0.000231348   -0.000241286
     25       11          -0.002927455   -0.002273704    0.003712010
 -------------------------------------------------------------------
 Cartesian Forces:  Max     0.010954578 RMS     0.002840773

 GradGradGradGradGradGradGradGradGradGradGradGradGradGradGradGradGradGrad
 Berny optimization.
 Internal  Forces:  Max     0.080284345 RMS     0.015298946
 Search for a local minimum.
 Step number   1 out of a maximum of  132
 All quantities printed in internal units (Hartrees-Bohrs-Radians)
 Mixed Optimization -- RFO/linear search
 Second derivative matrix not updated -- first step.
 ITU=  0
     Eigenvalues ---    0.00291   0.00341   0.00364   0.00411   0.00596
     Eigenvalues ---    0.01324   0.01391   0.01396   0.01416   0.01504
     Eigenvalues ---    0.01730   0.03831   0.04076   0.04339   0.04351
     Eigenvalues ---    0.04375   0.04784   0.05030   0.05043   0.05195
     Eigenvalues ---    0.05602   0.06168   0.07296   0.07357   0.07817
     Eigenvalues ---    0.08772   0.10025   0.10939   0.13557   0.15428
     Eigenvalues ---    0.16000   0.16000   0.16000   0.16000   0.16000
     Eigenvalues ---    0.16342   0.16399   0.16995   0.18246   0.19502
     Eigenvalues ---    0.19508   0.19584   0.19835   0.21999   0.22251
     Eigenvalues ---    0.25000   0.28888   0.29231   0.29391   0.29715
     Eigenvalues ---    0.31069   0.33748   0.33841   0.33885   0.33919
     Eigenvalues ---    0.34038   0.34277   0.34618   0.41306   0.42047
     Eigenvalues ---    0.42108   0.42330   0.43342   0.53193   0.53549
     Eigenvalues ---    0.54124   0.54263   0.54761   0.87715
 RFO step:  Lambda=-1.07235679D-01 EMin= 2.91440515D-03
 Linear search not attempted -- first point.
 Maximum step size (   0.300) exceeded in Quadratic search.
    -- Step size scaled by   0.625
 Iteration  1 RMS(Cart)=  0.30570050 RMS(Int)=  0.01470087
 Iteration  2 RMS(Cart)=  0.08364596 RMS(Int)=  0.00159123
 Iteration  3 RMS(Cart)=  0.00302485 RMS(Int)=  0.00112630
 Iteration  4 RMS(Cart)=  0.00000412 RMS(Int)=  0.00112630
 Iteration  5 RMS(Cart)=  0.00000001 RMS(Int)=  0.00112630
 Variable       Old X    -DE/DX   Delta X   Delta X   Delta X     New X
                                 (Linear)    (Quad)   (Total)
    R1        2.89524  -0.00181   0.00000  -0.00283  -0.00283   2.89240
    R2        2.34004   0.00475   0.00000   0.00302   0.00302   2.34306
    R3        2.07757   0.00001   0.00000   0.00001   0.00001   2.07758
    R4        2.89194   0.02173   0.00000   0.03386   0.03386   2.92580
    R5        2.68863   0.00223   0.00000   0.00264   0.00264   2.69126
    R6        2.07266   0.00012   0.00000   0.00017   0.00017   2.07284
    R7        2.88534   0.02534   0.00000   0.03917   0.03917   2.92452
    R8        2.69816  -0.00329   0.00000  -0.00395  -0.00395   2.69421
    R9        2.07467  -0.00003   0.00000  -0.00004  -0.00004   2.07464
   R10        2.90238   0.00849   0.00000   0.01341   0.01341   2.91578
   R11        2.68504   0.00068   0.00000   0.00080   0.00080   2.68584
   R12        2.07599  -0.00004   0.00000  -0.00005  -0.00005   2.07594
   R13        2.85881   0.00881   0.00000   0.01318   0.01318   2.87199
   R14        2.68786  -0.00555   0.00000  -0.00657  -0.00657   2.68129
   R15        2.06299   0.00019   0.00000   0.00026   0.00026   2.06326
   R16        2.67250   0.00795   0.00000   0.00919   0.00919   2.68169
   R17        2.07524  -0.00018   0.00000  -0.00025  -0.00025   2.07499
   R18        2.06865  -0.00006   0.00000  -0.00008  -0.00008   2.06856
   R19        4.10813   0.00524   0.00000   0.01578   0.01578   4.12390
   R20        1.82619   0.00022   0.00000   0.00022   0.00022   1.82640
   R21        1.82493  -0.00010   0.00000  -0.00010  -0.00010   1.82483
   R22        1.83144  -0.00007   0.00000  -0.00007  -0.00007   1.83137
   R23        1.83474  -0.00017   0.00000  -0.00017  -0.00017   1.83458
   R24        1.82045   0.00032   0.00000   0.00031   0.00031   1.82076
    A1        2.11326  -0.00605   0.00000  -0.01337  -0.01359   2.09967
    A2        1.97579   0.00245   0.00000   0.00224   0.00201   1.97780
    A3        2.10902   0.00047   0.00000  -0.00347  -0.00370   2.10532
    A4        2.05396   0.05080   0.00000   0.10937   0.10887   2.16283
    A5        1.77489  -0.01826   0.00000  -0.03917  -0.03747   1.73742
    A6        1.87751  -0.01193   0.00000  -0.01537  -0.01709   1.86042
    A7        1.93428  -0.02038   0.00000  -0.04763  -0.04650   1.88778
    A8        1.89151  -0.00794   0.00000  -0.00933  -0.01112   1.88040
    A9        1.92795   0.00705   0.00000  -0.00119  -0.00226   1.92569
   A10        1.95235   0.08028   0.00000   0.17231   0.17098   2.12332
   A11        1.83766  -0.03735   0.00000  -0.08224  -0.07875   1.75891
   A12        1.91987  -0.01348   0.00000  -0.01169  -0.01554   1.90433
   A13        1.93191  -0.02660   0.00000  -0.06315  -0.05911   1.87280
   A14        1.90814  -0.01822   0.00000  -0.02416  -0.02857   1.87956
   A15        1.91288   0.01462   0.00000   0.00597   0.00320   1.91608
   A16        1.95056   0.06282   0.00000   0.13470   0.13376   2.08432
   A17        1.86977  -0.02417   0.00000  -0.05519  -0.05272   1.81705
   A18        1.89472  -0.01481   0.00000  -0.01993  -0.02310   1.87162
   A19        1.90338  -0.02687   0.00000  -0.06213  -0.05974   1.84364
   A20        1.92327  -0.00814   0.00000  -0.00180  -0.00427   1.91900
   A21        1.92145   0.01098   0.00000   0.00289   0.00127   1.92273
   A22        1.99411  -0.01372   0.00000  -0.02752  -0.02770   1.96641
   A23        1.96178   0.01625   0.00000   0.04152   0.04162   2.00340
   A24        1.88672  -0.00005   0.00000  -0.00437  -0.00473   1.88199
   A25        1.83248   0.00007   0.00000   0.00295   0.00325   1.83572
   A26        1.92690   0.00245   0.00000  -0.00373  -0.00401   1.92289
   A27        1.85729  -0.00438   0.00000  -0.00752  -0.00759   1.84971
   A28        1.86810   0.00492   0.00000   0.00962   0.00962   1.87771
   A29        1.90836  -0.00100   0.00000  -0.00177  -0.00176   1.90660
   A30        1.90546  -0.00073   0.00000  -0.00057  -0.00058   1.90488
   A31        1.93998  -0.00215   0.00000  -0.00487  -0.00487   1.93511
   A32        1.94452  -0.00146   0.00000  -0.00234  -0.00235   1.94216
   A33        1.89689   0.00045   0.00000   0.00004   0.00004   1.89693
   A34        2.42291   0.00070   0.00000   0.00122   0.00122   2.42414
   A35        1.88153  -0.00012   0.00000  -0.00028  -0.00028   1.88124
   A36        1.88648  -0.00040   0.00000  -0.00094  -0.00094   1.88554
   A37        1.87744   0.00033   0.00000   0.00077   0.00077   1.87820
   A38        1.95706  -0.00089   0.00000  -0.00207  -0.00207   1.95499
   A39        1.91955   0.00063   0.00000   0.00147   0.00147   1.92102
    D1        2.43387   0.01690   0.00000   0.06997   0.07035   2.50422
    D2       -1.73331   0.00618   0.00000   0.04225   0.04184  -1.69147
    D3        0.29313   0.00116   0.00000   0.01721   0.01722   0.31035
    D4       -1.13613   0.00978   0.00000   0.03476   0.03516  -1.10097
    D5        0.97987  -0.00094   0.00000   0.00705   0.00666   0.98653
    D6        3.00631  -0.00596   0.00000  -0.01799  -0.01797   2.98835
    D7        1.49390  -0.00335   0.00000  -0.01695  -0.01688   1.47701
    D8       -1.18687   0.00401   0.00000   0.01982   0.01975  -1.16711
    D9       -1.12423  -0.02110   0.00000  -0.07903  -0.08139  -1.20562
   D10        3.05954  -0.00981   0.00000  -0.04620  -0.04555   3.01399
   D11        0.99992   0.00059   0.00000  -0.00148  -0.00188   0.99804
   D12        3.12759  -0.01599   0.00000  -0.06533  -0.06639   3.06120
   D13        1.02818  -0.00471   0.00000  -0.03250  -0.03055   0.99763
   D14       -1.03144   0.00569   0.00000   0.01223   0.01312  -1.01832
   D15        1.00936  -0.00692   0.00000  -0.02824  -0.02978   0.97958
   D16       -1.09005   0.00437   0.00000   0.00459   0.00606  -1.08400
   D17        3.13351   0.01477   0.00000   0.04932   0.04973  -3.09994
   D18       -3.05264  -0.01931   0.00000  -0.03862  -0.03914  -3.09178
   D19       -0.85532   0.01923   0.00000   0.04247   0.04289  -0.81243
   D20        1.24132   0.00062   0.00000  -0.00107  -0.00098   1.24034
   D21        1.16247   0.03102   0.00000   0.11926   0.12073   1.28320
   D22       -3.03682   0.01926   0.00000   0.08639   0.08650  -2.95033
   D23       -0.96233   0.01093   0.00000   0.04857   0.04971  -0.91263
   D24       -3.07726   0.01781   0.00000   0.08443   0.08394  -2.99332
   D25       -0.99337   0.00605   0.00000   0.05155   0.04971  -0.94366
   D26        1.08112  -0.00228   0.00000   0.01374   0.01292   1.09404
   D27       -0.96841   0.00729   0.00000   0.03613   0.03685  -0.93157
   D28        1.11548  -0.00447   0.00000   0.00326   0.00261   1.11809
   D29       -3.09322  -0.01280   0.00000  -0.03455  -0.03417  -3.12739
   D30        3.08600   0.02942   0.00000   0.05944   0.06071  -3.13647
   D31        0.97317  -0.02981   0.00000  -0.06312  -0.06458   0.90859
   D32       -1.13286   0.00033   0.00000   0.00336   0.00354  -1.12932
   D33       -2.85011  -0.01394   0.00000  -0.05660  -0.05765  -2.90776
   D34       -0.76420  -0.01163   0.00000  -0.04159  -0.04291  -0.80712
   D35        1.28044  -0.00763   0.00000  -0.02955  -0.03078   1.24966
   D36        1.36914  -0.00501   0.00000  -0.03042  -0.02954   1.33960
   D37       -2.82814  -0.00271   0.00000  -0.01541  -0.01480  -2.84294
   D38       -0.78350   0.00129   0.00000  -0.00336  -0.00267  -0.78616
   D39       -0.74184   0.00359   0.00000   0.00665   0.00728  -0.73456
   D40        1.34407   0.00589   0.00000   0.02166   0.02202   1.36608
   D41       -2.89448   0.00990   0.00000   0.03371   0.03415  -2.86032
   D42       -3.06446  -0.02393   0.00000  -0.04963  -0.05065  -3.11510
   D43       -0.95048   0.02200   0.00000   0.04429   0.04509  -0.90539
   D44        1.16161   0.00176   0.00000   0.00445   0.00468   1.16629
   D45       -1.07191   0.00738   0.00000   0.02510   0.02504  -1.04686
   D46        1.03120   0.00713   0.00000   0.02392   0.02386   1.05505
   D47        3.10436   0.00666   0.00000   0.02259   0.02252   3.12689
   D48        3.05405  -0.00464   0.00000  -0.01226  -0.01225   3.04180
   D49       -1.12603  -0.00489   0.00000  -0.01344  -0.01343  -1.13946
   D50        0.94714  -0.00536   0.00000  -0.01477  -0.01477   0.93237
   D51        1.05888  -0.00072   0.00000  -0.00335  -0.00330   1.05558
   D52       -3.12121  -0.00097   0.00000  -0.00454  -0.00448  -3.12569
   D53       -1.04804  -0.00144   0.00000  -0.00587  -0.00581  -1.05385
   D54       -1.60729   0.00417   0.00000   0.00528   0.00510  -1.60218
   D55        0.57047  -0.00288   0.00000  -0.00148  -0.00129   0.56918
   D56        2.61381  -0.00205   0.00000  -0.00774  -0.00775   2.60605
   D57        2.99593  -0.00026   0.00000  -0.00102  -0.00102   2.99490
   D58        0.91309  -0.00085   0.00000  -0.00203  -0.00202   0.91108
   D59       -1.20536   0.00108   0.00000   0.00292   0.00292  -1.20244
         Item               Value     Threshold  Converged?
 Maximum Force            0.080284     0.000015     NO 
 RMS     Force            0.015299     0.000010     NO 
 Maximum Displacement     2.017486     0.000060     NO 
 RMS     Displacement     0.380726     0.000040     NO 
 Predicted change in Energy=-5.580186D-02
 GradGradGradGradGradGradGradGradGradGradGradGradGradGradGradGradGradGrad

                          Input orientation:                          
 ---------------------------------------------------------------------
 Center     Atomic      Atomic             Coordinates (Angstroms)
 Number     Number       Type             X           Y           Z
 ---------------------------------------------------------------------
      1          6           0       -1.603604   -1.169078    0.493522
      2          6           0       -1.489183    0.344324    0.295426
      3          6           0       -0.576852    1.010595   -0.763283
      4          6           0        0.965781    0.973017   -0.645405
      5          6           0        1.716226   -0.343764   -0.934650
      6          6           0        3.162158   -0.308519   -0.467954
      7          8           0       -1.741745   -1.642434    1.631147
      8          8           0       -2.842308    0.642415   -0.033834
      9          8           0       -0.978363    2.373187   -0.641674
     10          8           0        1.411253    1.892677   -1.633249
     11          8           0        1.156090   -1.494557   -0.322163
     12          8           0        3.809389    0.749865   -1.156965
     13          1           0       -2.007599   -1.693575   -0.384194
     14          1           0       -1.232248    0.769719    1.273285
     15          1           0       -0.844746    0.631659   -1.758228
     16          1           0        1.224633    1.339487    0.357333
     17          1           0        1.672123   -0.524309   -2.010543
     18          1           0        1.548411   -1.670944    0.548156
     19          1           0       -2.896915    1.586927   -0.231368
     20          1           0       -0.465850    2.893389   -1.273513
     21          1           0        2.380277    1.891048   -1.619693
     22          1           0        4.690949    0.890113   -0.794308
     23          1           0        3.188192   -0.142598    0.617164
     24          1           0        3.633561   -1.271900   -0.686831
     25         11           0       -3.341309   -2.056657    3.056677
 ---------------------------------------------------------------------
                    Distance matrix (angstroms):
                    1          2          3          4          5
     1  C    0.000000
     2  C    1.530595   0.000000
     3  C    2.717490   1.548266   0.000000
     4  C    3.533760   2.703195   1.547587   0.000000
     5  C    3.707032   3.501599   2.668682   1.542965   0.000000
     6  C    4.937356   4.758563   3.975863   2.549097   1.519792
     7  O    1.239895   2.407311   3.758834   4.399314   4.497490
     8  O    2.256989   1.424156   2.408307   3.871028   4.750184
     9  O    3.771901   2.292461   1.425712   2.395869   3.837769
    10  O    4.794461   3.811785   2.342535   1.421287   2.362777
    11  O    2.896065   3.280300   3.077899   2.495921   1.418878
    12  O    5.975528   5.508971   4.411585   2.897861   2.372083
    13  H    1.099407   2.209902   3.082739   4.002490   3.998982
    14  H    2.122468   1.096898   2.152945   2.924727   3.848158
    15  H    2.981426   2.171487   1.097850   2.152419   2.861522
    16  H    3.782905   2.891190   2.146928   1.098538   2.178123
    17  H    4.173303   4.008226   2.994910   2.145812   1.091828
    18  H    3.192186   3.654060   3.664324   2.958812   1.997068
    19  H    3.129486   1.950201   2.449037   3.933031   5.050073
    20  H    4.573897   3.163307   1.953860   2.476271   3.918603
    21  H    5.449895   4.586148   3.202070   1.947516   2.429945
    22  H    6.746864   6.299162   5.269271   3.729065   3.223528
    23  H    4.902066   4.713644   4.172655   2.788868   2.148320
    24  H    5.369516   5.460724   4.789907   3.486892   2.144534
    25  Na   3.221363   4.101170   5.625154   6.437030   6.666585
                    6          7          8          9         10
     6  C    0.000000
     7  O    5.498528   0.000000
     8  O    6.094781   3.033800   0.000000
     9  O    4.936157   4.676930   2.615211   0.000000
    10  O    3.044478   5.752798   4.713179   2.631421   0.000000
    11  O    2.335005   3.497819   4.542793   4.429156   3.641071
    12  O    1.419092   6.656707   6.746706   5.081660   2.698874
    13  H    5.352736   2.033444   2.505262   4.202877   5.109783
    14  H    4.848228   2.491212   2.077754   2.510504   4.086204
    15  H    4.313238   4.178992   2.638921   2.073033   2.587530
    16  H    2.674140   4.394753   4.144748   2.630540   2.074430
    17  H    2.155540   5.115331   5.064456   4.158650   2.460127
    18  H    2.343685   3.463929   4.996875   4.914802   4.180518
    19  H    6.353035   3.902839   0.966491   2.113621   4.540821
    20  H    4.905465   5.535219   3.500177   0.965661   2.157394
    21  H    2.603063   6.328074   5.599056   3.531210   0.969121
    22  H    1.969881   7.326403   7.575595   5.862074   3.530633
    23  H    1.098038   5.251851   6.116124   5.027328   3.516279
    24  H    1.094637   5.865512   6.784386   5.878651   3.981068
    25  Na   7.600927   2.182275   4.133431   6.235770   7.757544
                   11         12         13         14         15
    11  O    0.000000
    12  O    3.574117   0.000000
    13  H    3.170550   6.356486   0.000000
    14  H    3.657398   5.596839   3.068586   0.000000
    15  H    3.253678   4.694301   2.940563   3.059295   0.000000
    16  H    2.915170   3.053148   4.494068   2.683256   3.042852
    17  H    2.014522   2.630593   4.189577   4.570931   2.781107
    18  H    0.970816   3.725557   3.676275   3.770240   4.043339
    19  H    5.092213   6.821430   3.402342   2.388080   2.730428
    20  H    4.773869   4.783926   4.920174   3.403456   2.343914
    21  H    3.826818   1.886472   5.799089   4.762041   3.464971
    22  H    4.290081   0.963504   7.191258   6.274846   5.624932
    23  H    2.615256   2.080844   5.514026   4.561042   4.744107
    24  H    2.514045   2.083140   5.664988   5.629063   4.982636
    25  Na   5.653240   8.761497   3.708127   3.951840   6.053362
                   16         17         18         19         20
    16  H    0.000000
    17  H    3.046444   0.000000
    18  H    3.033800   2.806603   0.000000
    19  H    4.170726   5.338435   5.566175   0.000000
    20  H    2.816381   4.098147   5.311202   2.950082   0.000000
    21  H    2.355496   2.547194   4.251983   5.465226   3.037263
    22  H    3.680158   3.548680   4.270453   7.640559   5.552957
    23  H    2.473793   3.057616   2.242651   6.382773   5.113111
    24  H    3.703047   2.481601   2.456070   7.143350   5.873585
    25  Na   6.298261   7.291044   5.509157   4.927924   7.177867
                   21         22         23         24         25
    21  H    0.000000
    22  H    2.649970   0.000000
    23  H    3.129213   2.305868   0.000000
    24  H    3.527774   2.409132   1.781594   0.000000
    25  Na   8.377909   9.382468   7.228363   7.954779   0.000000
 Symmetry turned off by external request.
 Stoichiometry    C6H12NaO6(1+)
 Framework group  C1[X(C6H12NaO6)]
 Deg. of freedom    69
 Full point group                 C1      NOp   1
 Rotational constants (GHZ):      1.1051736      0.3594617      0.2859160
 Standard basis: 6-311+G(2df,p) (5D, 7F)
 Integral buffers will be    131072 words long.
 Raffenetti 2 integral format.
 Two-electron integral symmetry is turned off.
   522 basis functions,   786 primitive gaussians,   587 cartesian basis functions
    53 alpha electrons       53 beta electrons
       nuclear repulsion energy       904.6047938549 Hartrees.
 NAtoms=   25 NActive=   25 NUniq=   25 SFac= 1.00D+00 NAtFMM=   50 NAOKFM=F Big=F
 ------------------------------------------------------------------------------
 Polarizable Continuum Model (PCM)
 =================================
 Model                : PCM.
 Atomic radii         : UFF (Universal Force Field).
 Polarization charges : Total charges.
 Charge compensation  : None.
 Solution method      : Matrix inversion.
 Cavity type          : Scaled VdW (van der Waals Surface) (Alpha=1.100).
 Cavity algorithm     : GePol (No added spheres)
                        Default sphere list used, NSphG=   25.
                        Lebedev-Laikov grids with approx.  5.0 points / Ang**2.
                        Smoothing algorithm: Karplus/York (Gamma=1.0000).
                        Polarization charges: spherical gaussians, with
                                              point-specific exponents (IZeta= 3).
                        Self-potential: point-specific (ISelfS= 7).
                        Self-field    : sphere-specific E.n sum rule (ISelfD= 2).
 1st derivatives      : Analytical E(r).r(x)/FMM algorithm (CHGder, D1EAlg=3).
                        Cavity 1st derivative terms included.
 Solvent              : Ethanol, Eps=  24.852000 Eps(inf)=   1.852593
 ------------------------------------------------------------------------------
 One-electron integrals computed using PRISM.
 NBasis=   522 RedAO= T  NBF=   522
 NBsUse=   522 1.00D-06 NBFU=   522
 Initial guess read from the read-write file.
 B after Tr=     0.000000    0.000000    0.000000
         Rot=    1.000000    0.000000    0.000000    0.000000 Ang=   0.00 deg.
 Harris functional with IExCor=  402 diagonalized for initial guess.
 ExpMin= 7.60D-03 ExpMax= 3.62D+04 ExpMxC= 1.30D+03 IAcc=3 IRadAn=         5 AccDes= 0.00D+00
 HarFok:  IExCor=  402 AccDes= 0.00D+00 IRadAn=         5 IDoV= 1
 ScaDFX=  1.000000  1.000000  1.000000  1.000000
 FoFCou: FMM=F IPFlag=           0 FMFlag=      100000 FMFlg1=           0
         NFxFlg=           0 DoJE=T BraDBF=F KetDBF=T FulRan=T
         Omega=  0.000000  0.000000  1.000000  0.000000  0.000000 ICntrl=     500 IOpCl=  0
         NMat0=    1 NMatS0=    1 NMatT0=    0 NMatD0=    1 NMtDS0=    0 NMtDT0=    0
         I1Cent=           4 NGrid=           0.
 Symmetry not used in FoFCou.
 Requested convergence on RMS density matrix=1.00D-08 within 128 cycles.
 Requested convergence on MAX density matrix=1.00D-06.
 Requested convergence on             energy=1.00D-06.
 No special actions if energy rises.
 Error on total polarization charges =  0.01193
 SCF Done:  E(RB3LYP) =  -849.658212192     A.U. after   13 cycles
             Convg  =    0.4464D-08             -V/T =  2.0038
 QCSCF skips out because SCF is already converged.
 D1PCM: PCM CHGder 1st derivatives, ID1Alg=3 FixD1E=F DoIter=F DoCFld=F I1PDM=0.
 Calling FoFJK, ICntrl=      2127 FMM=F ISym2X=0 I1Cent= 0 IOpClX= 0 NMat=1 NMatS=1 NMatT=0.
 -------------------------------------------------------------------
 Center     Atomic                   Forces (Hartrees/Bohr)
 Number     Number              X              Y              Z
 -------------------------------------------------------------------
      1        6          -0.030904723    0.002161754    0.030644261
      2        6           0.015279675    0.003469655    0.007375692
      3        6           0.002095806   -0.009896291   -0.004232317
      4        6           0.000037775   -0.005050762    0.005511382
      5        6          -0.003409878   -0.010532730    0.009884494
      6        6           0.000781446    0.005229399   -0.004316300
      7        8           0.021089334    0.012600782   -0.043786304
      8        8          -0.002950519   -0.003805055    0.001567856
      9        8          -0.001394059    0.003323757   -0.002337835
     10        8          -0.004126004    0.009305559   -0.002292931
     11        8          -0.015617930   -0.008231439    0.007070808
     12        8           0.008874020    0.004193670   -0.000741396
     13        1           0.012377937   -0.008494856   -0.001651612
     14        1           0.000123771    0.000206565   -0.000480612
     15        1          -0.001344716   -0.000486344    0.000142336
     16        1           0.001021468   -0.000445664    0.000852662
     17        1          -0.000027885    0.000943404   -0.000708492
     18        1          -0.002406501    0.004301666   -0.005073247
     19        1           0.002447417    0.001291671   -0.001305832
     20        1           0.001186022   -0.000173286   -0.000352518
     21        1           0.001728640    0.000404162    0.000594766
     22        1           0.000238046    0.000708399   -0.000316420
     23        1           0.000167760    0.000182111   -0.000538661
     24        1          -0.000220452    0.000786752   -0.000790921
     25       11          -0.005046452   -0.001992878    0.005281139
 -------------------------------------------------------------------
 Cartesian Forces:  Max     0.043786304 RMS     0.009042097

 GradGradGradGradGradGradGradGradGradGradGradGradGradGradGradGradGradGrad
 Berny optimization.
 Using GEDIIS/GDIIS optimizer.
 Internal  Forces:  Max     0.041149106 RMS     0.007233188
 Search for a local minimum.
 Step number   2 out of a maximum of  132
 All quantities printed in internal units (Hartrees-Bohrs-Radians)
 Mixed Optimization -- RFO/linear search
 Update second derivatives using D2CorX and points    1    2
 DE= -4.32D-03 DEPred=-5.58D-02 R= 7.75D-02
 Trust test= 7.75D-02 RLast= 4.22D-01 DXMaxT set to 1.50D-01
 ITU= -1  0
 Use linear search instead of GDIIS.
 Linear search step of   0.168 exceeds DXMaxT=   0.150 but not scaled.
 Quartic linear search produced a step of -0.56792.
 Iteration  1 RMS(Cart)=  0.19620039 RMS(Int)=  0.00581027
 Iteration  2 RMS(Cart)=  0.02018214 RMS(Int)=  0.00027859
 Iteration  3 RMS(Cart)=  0.00008672 RMS(Int)=  0.00027624
 Iteration  4 RMS(Cart)=  0.00000002 RMS(Int)=  0.00027624
 Variable       Old X    -DE/DX   Delta X   Delta X   Delta X     New X
                                 (Linear)    (Quad)   (Total)
    R1        2.89240  -0.00524   0.00161   0.00000   0.00161   2.89401
    R2        2.34306  -0.04115  -0.00171   0.00000  -0.00171   2.34135
    R3        2.07758   0.00082  -0.00001   0.00000  -0.00001   2.07757
    R4        2.92580  -0.01122  -0.01923   0.00000  -0.01923   2.90657
    R5        2.69126  -0.00012  -0.00150   0.00000  -0.00150   2.68977
    R6        2.07284  -0.00031  -0.00010   0.00000  -0.00010   2.07274
    R7        2.92452  -0.01229  -0.02225   0.00000  -0.02225   2.90227
    R8        2.69421   0.00284   0.00224   0.00000   0.00224   2.69645
    R9        2.07464   0.00036   0.00002   0.00000   0.00002   2.07466
   R10        2.91578  -0.00445  -0.00761   0.00000  -0.00761   2.90817
   R11        2.68584   0.00672  -0.00045   0.00000  -0.00045   2.68539
   R12        2.07594   0.00087   0.00003   0.00000   0.00003   2.07597
   R13        2.87199   0.00754  -0.00748   0.00000  -0.00748   2.86451
   R14        2.68129   0.01115   0.00373   0.00000   0.00373   2.68502
   R15        2.06326   0.00055  -0.00015   0.00000  -0.00015   2.06311
   R16        2.68169   0.00835  -0.00522   0.00000  -0.00522   2.67647
   R17        2.07499  -0.00051   0.00014   0.00000   0.00014   2.07513
   R18        2.06856  -0.00063   0.00005   0.00000   0.00005   2.06861
   R19        4.12390   0.00752  -0.00896   0.00000  -0.00896   4.11494
   R20        1.82640   0.00138  -0.00012   0.00000  -0.00012   1.82628
   R21        1.82483   0.00076   0.00005   0.00000   0.00005   1.82489
   R22        1.83137   0.00173   0.00004   0.00000   0.00004   1.83141
   R23        1.83458  -0.00631   0.00009   0.00000   0.00009   1.83467
   R24        1.82076   0.00019  -0.00018   0.00000  -0.00018   1.82058
    A1        2.09967   0.00545   0.00772   0.00000   0.00777   2.10744
    A2        1.97780   0.00663  -0.00114   0.00000  -0.00108   1.97672
    A3        2.10532  -0.00531   0.00210   0.00000   0.00216   2.10748
    A4        2.16283  -0.01979  -0.06183   0.00000  -0.06172   2.10111
    A5        1.73742   0.00576   0.02128   0.00000   0.02087   1.75829
    A6        1.86042   0.00662   0.00971   0.00000   0.01013   1.87055
    A7        1.88778   0.00559   0.02641   0.00000   0.02614   1.91393
    A8        1.88040   0.00468   0.00631   0.00000   0.00675   1.88714
    A9        1.92569  -0.00232   0.00128   0.00000   0.00155   1.92723
   A10        2.12332  -0.02085  -0.09710   0.00000  -0.09683   2.02650
   A11        1.75891   0.01042   0.04472   0.00000   0.04390   1.80281
   A12        1.90433   0.00404   0.00882   0.00000   0.00976   1.91409
   A13        1.87280   0.00424   0.03357   0.00000   0.03261   1.90540
   A14        1.87956   0.00681   0.01623   0.00000   0.01731   1.89687
   A15        1.91608  -0.00413  -0.00182   0.00000  -0.00114   1.91494
   A16        2.08432  -0.02207  -0.07596   0.00000  -0.07576   2.00856
   A17        1.81705   0.00077   0.02994   0.00000   0.02935   1.84640
   A18        1.87162   0.00847   0.01312   0.00000   0.01390   1.88552
   A19        1.84364   0.01503   0.03393   0.00000   0.03336   1.87700
   A20        1.91900   0.00279   0.00243   0.00000   0.00302   1.92202
   A21        1.92273  -0.00487  -0.00072   0.00000  -0.00032   1.92240
   A22        1.96641  -0.00138   0.01573   0.00000   0.01578   1.98219
   A23        2.00340  -0.01253  -0.02364   0.00000  -0.02367   1.97974
   A24        1.88199   0.00315   0.00268   0.00000   0.00277   1.88476
   A25        1.83572   0.01435  -0.00184   0.00000  -0.00192   1.83381
   A26        1.92289  -0.00353   0.00228   0.00000   0.00235   1.92524
   A27        1.84971  -0.00004   0.00431   0.00000   0.00432   1.85403
   A28        1.87771   0.01076  -0.00546   0.00000  -0.00546   1.87225
   A29        1.90660  -0.00228   0.00100   0.00000   0.00100   1.90760
   A30        1.90488  -0.00281   0.00033   0.00000   0.00033   1.90521
   A31        1.93511  -0.00348   0.00277   0.00000   0.00277   1.93787
   A32        1.94216  -0.00351   0.00134   0.00000   0.00134   1.94350
   A33        1.89693   0.00133  -0.00002   0.00000  -0.00002   1.89691
   A34        2.42414   0.00321  -0.00069   0.00000  -0.00069   2.42344
   A35        1.88124  -0.00418   0.00016   0.00000   0.00016   1.88140
   A36        1.88554  -0.00146   0.00053   0.00000   0.00053   1.88607
   A37        1.87820  -0.00025  -0.00043   0.00000  -0.00043   1.87777
   A38        1.95499  -0.00469   0.00118   0.00000   0.00118   1.95617
   A39        1.92102   0.00143  -0.00083   0.00000  -0.00083   1.92019
    D1        2.50422  -0.00807  -0.03995   0.00000  -0.04005   2.46416
    D2       -1.69147  -0.00698  -0.02376   0.00000  -0.02366  -1.71513
    D3        0.31035  -0.00505  -0.00978   0.00000  -0.00977   0.30058
    D4       -1.10097   0.00503  -0.01997   0.00000  -0.02008  -1.12105
    D5        0.98653   0.00611  -0.00378   0.00000  -0.00368   0.98285
    D6        2.98835   0.00805   0.01020   0.00000   0.01020   2.99855
    D7        1.47701   0.00918   0.00959   0.00000   0.00957   1.48659
    D8       -1.16711  -0.00830  -0.01122   0.00000  -0.01120  -1.17832
    D9       -1.20562   0.00333   0.04622   0.00000   0.04684  -1.15879
   D10        3.01399   0.00089   0.02587   0.00000   0.02570   3.03969
   D11        0.99804  -0.00094   0.00107   0.00000   0.00116   0.99920
   D12        3.06120   0.00386   0.03771   0.00000   0.03799   3.09919
   D13        0.99763   0.00142   0.01735   0.00000   0.01686   1.01448
   D14       -1.01832  -0.00042  -0.00745   0.00000  -0.00769  -1.02601
   D15        0.97958   0.00093   0.01692   0.00000   0.01732   0.99689
   D16       -1.08400  -0.00151  -0.00344   0.00000  -0.00382  -1.08781
[...]
 0059557,0.00040668,0.00014105,-0.00047165,-0.00328114,-0.00577998,-0.0
 3984252,-0.07840466,-0.26527883,-0.00263927,-0.00229906,-0.00588574,0.
 00017810,0.00010394,-0.00004478,0.00010411,-0.00008251,0.00001076,0.00
 002649,0.00007500,0.00019465,-0.00068283,-0.00006830,0.00193967,0.0005
 4570,0.00321602,-0.02570675,-0.00021856,-0.00047983,0.00100075,0.00007
 895,0.00004173,0.00002249,-0.00008276,0.00000476,0.00006486,0.00054727
 ,0.00000021,0.00026841,0.00057040,-0.00037286,0.00047761,0.04077204,0.
 07901140,0.29770532,-0.00109554,-0.00034317,-0.00391290,-0.00049637,0.
 00024708,-0.00069099,-0.00026841,0.00017704,-0.00052673,0.00008461,0.0
 0030544,-0.00083502,0.00336661,0.00222751,0.02198121,0.00085616,0.0000
 5135,0.00480498,0.00093870,-0.00031922,0.00147867,0.00035272,-0.000281
 15,0.00038313,0.00009253,-0.00022877,0.00016254,-0.00027044,-0.0004247
 8,0.00031189,-0.06383674,-0.03748429,-0.14960721,0.00018280,0.00061692
 ,-0.00145105,-0.00053461,0.00038362,0.00034301,-0.00037714,0.00062715,
 0.00029125,0.00000393,-0.00003649,0.00015186,0.00027361,-0.00008171,-0
 .00007722,-0.00149889,-0.00260691,0.00282655,0.06294536,0.00091697,0.0
 0070240,0.00000289,0.00058637,-0.00014834,0.00040200,0.00051678,-0.000
 45037,0.00030089,-0.00026412,0.00073025,0.00378772,0.00752908,0.000362
 49,0.03138735,-0.00003747,0.00136065,0.00132151,-0.00023971,-0.0004295
 3,0.00040047,-0.00049886,0.00016976,-0.00024723,-0.00022458,0.00034993
 ,-0.00017137,0.00010858,-0.00046308,-0.00132244,-0.04443531,-0.0379767
 3,-0.08231413,0.00043406,-0.00004908,-0.00065950,-0.00000596,-0.000012
 60,0.00006722,0.00026972,-0.00047229,-0.00041871,-0.00019088,0.0000289
 7,-0.00019060,-0.00012813,-0.00162638,-0.00095069,-0.00146326,-0.00217
 164,0.00145885,0.03800581,0.04138570,-0.00221724,-0.00069458,0.0009151
 1,-0.00005196,0.00040579,0.00040196,-0.00028433,0.00025083,-0.00032913
 ,-0.00114275,0.00053569,0.00139911,-0.00611200,-0.00476579,-0.02551417
 ,0.00108073,-0.00086738,0.00219544,0.00019474,0.00068163,-0.00093767,0
 .00034227,-0.00034323,0.00002280,0.00019460,-0.00031245,0.00009377,0.0
 0006277,-0.00124234,0.00078576,-0.11903841,-0.04526108,-0.44910592,-0.
 00194215,-0.00065563,0.00045691,0.00016093,-0.00006445,0.00001449,0.00
 010588,-0.00012065,0.00035463,0.00006192,0.00001660,0.00000880,-0.0001
 7962,0.00027847,-0.00043640,0.00226351,0.00404071,-0.00045700,0.125641
 25,0.04850587,0.46994970,-0.00686879,-0.00136770,-0.00076223,-0.009565
 24,0.04291200,-0.01776180,-0.00328334,0.00573933,0.00078240,-0.0002865
 4,-0.00025234,-0.00077005,0.00044359,0.00074099,-0.00021469,-0.0000430
 4,-0.00025431,-0.00000278,0.00151692,0.00096475,-0.00073385,-0.0411617
 6,-0.04343137,0.01992098,0.00065203,0.00164831,-0.00174667,0.00146020,
 -0.00018392,-0.00025968,-0.00057546,-0.00005264,0.00028879,0.00016079,
 -0.00010635,0.00000830,0.00085859,0.00021990,0.00032022,-0.00113135,0.
 00036598,-0.00035722,-0.00002420,-0.00070024,0.00005735,0.00005208,0.0
 0003240,0.00011354,-0.00001774,-0.00003119,0.00000859,0.00005746,0.000
 02091,0.00001176,0.05648871,0.00240094,-0.00231811,0.00200613,0.005975
 03,-0.01218059,0.00402575,-0.00211648,0.00229805,-0.00009311,0.0011832
 7,-0.00127263,0.00033308,0.00034691,0.00001191,-0.00006230,0.00005506,
 -0.00004579,0.00000975,-0.00005662,0.00060700,-0.00081527,-0.00010985,
 -0.40198666,0.17842912,-0.00111932,0.00019918,-0.00027037,-0.00079805,
 -0.00035077,0.00035350,-0.00024805,0.00017220,0.00001008,-0.00006535,-
 0.00000560,0.00001136,-0.00026929,0.00020348,-0.00010435,-0.00176895,0
 .00020258,-0.00068205,0.00033937,-0.00044210,-0.00022467,-0.00012291,0
 .00001834,-0.00002899,0.00000663,0.00001150,0.00001083,0.00006776,-0.0
 0008020,0.00003711,-0.00411233,0.41663924,0.00090279,0.00232578,-0.001
 80442,0.00044195,0.00332044,-0.00240350,0.00286861,-0.00239874,0.00227
 503,-0.00014828,0.00044955,0.00018716,-0.00029277,-0.00041707,0.000226
 19,-0.00001304,0.00014100,-0.00001618,-0.00079968,-0.00133610,0.002040
 48,-0.00046374,0.17955325,-0.08474322,-0.00063877,-0.00015113,-0.00038
 311,-0.00027482,0.00011025,-0.00004120,0.00055398,-0.00001324,-0.00011
 115,-0.00000692,0.00004482,-0.00001835,-0.00088900,0.00020911,-0.00037
 540,-0.00075989,0.00091727,-0.00005500,0.00012469,0.00012155,-0.000151
 22,-0.00008312,-0.00001737,-0.00010804,0.00001193,0.00000465,-0.000017
 91,-0.00003175,0.00001232,-0.00003901,-0.00006483,-0.18342067,0.087347
 90,0.00084775,-0.00089040,-0.00037474,-0.00265542,0.00428187,-0.000344
 90,0.00943948,0.00774032,-0.00905372,0.00142352,0.00470122,-0.00359230
 ,-0.00045087,0.00045695,0.00049179,-0.00003272,0.00042318,-0.00035453,
 0.00000668,0.00097824,-0.00056517,-0.00018981,-0.00185949,0.00115874,-
 0.22622709,-0.15405671,0.20000249,0.00162777,0.00000306,-0.00040150,-0
 .00023308,-0.00097692,0.00045705,0.00108027,-0.00074060,0.00015699,-0.
 00014018,0.00008840,0.00000957,0.00007660,-0.00007880,-0.00004214,-0.0
 0020593,0.00104608,0.00059560,-0.00028500,-0.00032346,0.00049922,-0.00
 000108,-0.00001537,-0.00003454,-0.00000587,0.00003423,-0.00006170,0.00
 146962,0.00045472,-0.00057004,0.21663980,-0.00082074,0.00038412,0.0014
 3129,0.00185081,-0.00639624,-0.00071286,-0.02334632,-0.02805850,0.0256
 3225,0.00029183,-0.00086376,0.00303164,-0.00075526,-0.00102596,0.00012
 500,0.00006850,0.00025612,0.00012557,0.00004779,-0.00063111,-0.0000091
 9,0.00176301,0.00199055,-0.00092648,-0.11530662,-0.13813478,0.11896837
 ,-0.00234450,-0.00011531,0.00013231,0.00019582,0.00038201,-0.00025205,
 -0.00055779,0.00036304,-0.00004754,0.00007018,-0.00003055,-0.00010628,
 0.00002515,0.00010563,-0.00002903,-0.00052753,0.00067658,-0.00018799,0
 .00012562,0.00007454,-0.00027241,0.00000976,-0.00001571,-0.00000184,0.
 00003864,-0.00008410,0.00006042,-0.00200935,-0.00139745,0.00036476,0.1
 4082075,0.17189238,0.00027094,-0.00019545,0.00009816,-0.00012687,0.001
 77597,0.00022372,0.00032606,0.00212527,-0.00249571,0.00016740,0.000378
 15,0.00032113,0.00077905,0.00084580,-0.00028425,-0.00006599,-0.0004475
 7,-0.00002219,-0.00000198,0.00006613,-0.00006509,-0.00091384,-0.001156
 88,0.00148354,0.18749592,0.14479706,-0.17620385,0.00070953,-0.00060395
 ,-0.00056232,-0.00011778,-0.00005535,0.00014682,0.00006397,0.00004480,
 -0.00001392,-0.00006309,0.00009963,-0.00001511,-0.00010310,-0.00021789
 ,0.00022517,0.00002869,-0.00131123,0.00032788,-0.00017488,0.00023307,-
 0.00021508,0.00002287,-0.00011971,-0.00004497,-0.00002712,0.00007310,-
 0.00003370,0.00094978,0.00032510,-0.00158137,-0.18936307,-0.14632682,0
 .17967722,-0.00016817,-0.00056876,0.00015753,-0.00019346,0.00005656,0.
 00025677,-0.00050131,-0.00011115,0.00059407,-0.01539989,-0.00206647,0.
 00515857,0.00345729,-0.00201209,-0.00048188,0.00611228,0.00333668,-0.0
 0449792,0.00009924,0.00037461,-0.00030943,0.00064955,0.00003860,-0.000
 20729,0.00225589,-0.00021063,-0.00039249,-0.44926207,0.06088950,0.0461
 3412,-0.00138610,0.00262675,-0.00089276,-0.00163368,-0.00465617,0.0031
 8816,-0.00000998,0.00002179,0.00000759,0.00002889,0.00003774,0.0000171
 7,0.00019026,0.00008737,0.00008931,0.00056185,0.00120600,-0.00196024,0
 .00001151,-0.00032436,-0.00003820,0.00040192,-0.00010353,0.00006371,-0
 .00027357,-0.00003095,0.00011295,-0.00213674,0.00049063,0.00000893,0.4
 6112702,-0.00029492,0.00047258,-0.00002690,-0.00077279,0.00066416,-0.0
 0109089,-0.00210882,-0.00556432,0.00532248,-0.03128422,0.00102681,0.00
 308041,-0.00299195,-0.00139874,0.00109302,-0.00083563,-0.00626174,0.00
 465313,0.00008285,-0.00020642,0.00005664,-0.00103506,0.00007495,0.0004
 1311,0.00250730,0.00057512,-0.00041975,0.09582336,-0.04005303,0.010875
 68,0.00149846,0.00091621,-0.00095481,-0.00407644,-0.00146784,-0.001366
 67,0.00000819,-0.00007708,-0.00002660,0.00001873,-0.00001192,0.0000540
 9,0.00021438,0.00005841,-0.00004980,0.00018938,0.00006526,0.00064979,-
 0.00007127,-0.00043066,-0.00020553,-0.00011277,0.00003854,0.00015192,-
 0.00003664,-0.00025013,0.00004754,-0.00172322,0.00049309,-0.00034049,-
 0.05564572,0.04672299,0.00008016,0.00003327,-0.00004829,0.00050001,-0.
 00005867,0.00052350,0.00032156,0.00197841,-0.00247238,0.02956378,-0.00
 197943,-0.00645198,0.00019843,0.00147198,0.00190256,-0.00098606,0.0038
 1260,-0.00103397,-0.00003841,-0.00002834,0.00003364,0.00017146,0.00003
 845,-0.00006420,-0.00102000,0.00017874,0.00091782,0.01732621,0.0185082
 1,-0.02587646,-0.00036531,-0.00075969,-0.00008445,0.00237187,-0.002868
 09,-0.00272364,0.00000561,0.00000491,-0.00000066,-0.00001705,-0.000052
 23,0.00005835,0.00013744,0.00002533,0.00009798,0.00054512,0.00022581,-
 0.00058214,-0.00019052,-0.00019587,-0.00008685,0.00007682,0.00009557,-
 0.00013715,0.00007516,0.00008729,-0.00004560,0.00116917,-0.00089223,-0
 .00097844,-0.04938613,-0.01983993,0.03806775,-0.00000382,-0.00005501,0
 .00002458,-0.00004614,-0.00000279,0.00002851,-0.00015046,-0.00006227,-
 0.00000268,0.00035711,0.00023438,-0.00010086,0.00087358,-0.00216527,0.
 00279434,-0.01629726,-0.00115790,-0.00591888,-0.00000367,0.00003083,-0
 .00002621,0.00004606,-0.00000110,-0.00001008,0.00012809,-0.00011215,0.
 00001837,0.00067066,0.00034908,0.00002573,-0.00064090,0.00004685,0.000
 01274,-0.46609776,-0.07062226,-0.11943435,-0.00000467,0.00000338,0.000
 00052,0.00000030,0.00000419,-0.00000200,0.00001290,0.00000228,0.000002
 11,-0.00005882,0.00002605,0.00002772,0.00043418,0.00001714,0.00001017,
 -0.00025911,-0.00009121,-0.00004278,-0.00001603,0.00000092,0.00000627,
 -0.00000089,0.00002628,-0.00001719,-0.00212449,0.00012643,-0.00049796,
 0.48050851,0.00014044,-0.00005275,0.00000105,0.00000038,-0.00004569,0.
 00006108,0.00002834,-0.00000389,-0.00012597,-0.00066965,-0.00057480,0.
 00083161,0.00068648,-0.00237959,0.00263086,-0.02656085,-0.00565449,-0.
 00662645,-0.00005346,0.00000565,0.00001988,0.00007028,0.00003185,-0.00
 004405,0.00020832,0.00004553,-0.00007056,0.00349110,-0.00167654,-0.000
 49117,-0.00165006,-0.00015617,0.00054513,-0.04535766,-0.02461843,0.008
 12072,-0.00001251,0.00001446,-0.00000145,0.00000075,-0.00000028,-0.000
 00892,-0.00000651,0.00000412,0.00000151,0.00002082,0.00005938,-0.00012
 440,0.00028619,-0.00003088,-0.00000684,-0.00002291,0.00000054,-0.00009
 491,-0.00003823,0.00000309,0.00001726,-0.00021856,0.00010595,-0.000000
 05,-0.00164877,0.00350105,0.00017680,0.07102418,0.03010694,-0.00023792
 ,0.00002034,0.00005075,-0.00001692,0.00005296,0.00001085,-0.00001584,-
 0.00001685,0.00000444,0.00006021,0.00036151,-0.00022877,-0.00015497,0.
 00272917,-0.00390227,0.03304265,0.00599080,0.00346865,0.00009948,0.000
 03875,-0.00009290,0.00000546,-0.00004238,0.00001043,-0.00001497,-0.000
 06233,0.00002205,-0.00038481,0.00012712,0.00062031,0.00241917,0.000956
 13,-0.00021191,-0.16086665,-0.00444722,-0.06929911,0.00001653,-0.00002
 125,-0.00000290,-0.00000227,-0.00000289,0.00000105,-0.00000226,0.00000
 138,-0.00000379,0.00000713,-0.00006710,0.00003414,0.00006527,0.0000589
 5,0.00032218,-0.00006880,-0.00001556,0.00029337,0.00001264,0.00000344,
 -0.00000596,0.00005746,-0.00002649,0.00000807,0.00049933,-0.00093451,-
 0.00067374,0.12530108,-0.00475248,0.06843747,-0.00001184,-0.00001492,-
 0.00002859,-0.00000007,0.00000084,0.00002842,-0.00014864,-0.00014670,0
 .00008837,0.00216558,-0.00172570,-0.00092299,-0.00872282,-0.01157237,-
 0.03289120,-0.06081437,-0.01312168,-0.04474967,0.00000832,0.00001491,0
 .00000422,0.00002431,-0.00000098,-0.00000418,0.00006500,0.00006337,0.0
 0008673,0.00023068,0.00036845,0.00010145,0.00228109,0.00174786,-0.0002
 3783,0.00058083,-0.00162700,0.02403143,0.00002360,0.00001161,0.0000098
 0,-0.00001877,-0.00000196,0.00001814,0.00017523,0.00007926,0.00015673,
 0.00001562,0.00080780,0.00078474,-0.00604273,-0.00012352,-0.00037255,-
 0.00046717,-0.00084214,0.00064555,-0.00000316,0.00000087,-0.00000172,-
 0.00003211,0.00000389,-0.00002131,-0.00059843,0.00027748,-0.00012051,0
 .00176213,0.00078493,0.00059726,0.06538106,0.00002144,0.00003001,-0.00
 002740,0.00002535,0.00000333,-0.00003049,0.00016211,0.00004227,0.00009
 499,-0.00004324,0.00023143,0.00124157,0.00120188,0.00094435,0.00076257
 ,-0.01480899,-0.08376035,-0.08395174,-0.00001849,-0.00002618,0.0000341
 4,-0.00004280,0.00000404,0.00001155,-0.00009488,0.00006563,-0.00004104
 ,0.00034548,-0.00001031,-0.00021728,-0.00012891,-0.00001559,0.00001032
 ,-0.00089249,0.00394032,0.03020333,-0.00000309,0.00000040,0.00000604,-
 0.00000064,-0.00000237,-0.00000298,0.00003880,-0.00005680,-0.00004557,
 -0.00008397,0.00007713,0.00015287,-0.00020560,0.00064246,0.00057139,-0
 .00082529,-0.00103578,-0.00046634,0.00001081,-0.00000351,-0.00000354,0
 .00000114,-0.00001690,0.00001394,-0.00047110,0.00029403,0.00020897,0.0
 0166319,0.00124627,-0.00041542,0.01979943,0.08560992,0.00009353,0.0000
 3546,-0.00001861,-0.00001443,-0.00000384,-0.00005069,0.00014131,0.0001
 4274,0.00036671,0.00060843,-0.00033349,0.00045192,-0.00194741,-0.00258
 775,-0.00805217,-0.04137386,-0.07876352,-0.25373688,-0.00004206,-0.000
 03748,0.00005304,-0.00004531,0.00000661,0.00001990,-0.00015311,0.00004
 607,-0.00001150,-0.00055859,0.00027375,0.00013835,-0.00020865,-0.00036
 696,0.00268493,0.00586114,0.00571619,-0.02779290,0.00001041,-0.0000003
 9,-0.00000496,0.00000005,-0.00000147,0.00000974,0.00014221,-0.00005031
 ,-0.00001332,-0.00046860,0.00089212,0.00011619,-0.00076521,0.00047054,
 0.00060559,-0.00138508,-0.00105023,0.00006314,0.00001525,-0.00000065,-
 0.00000690,0.00005187,-0.00004567,0.00000325,0.00086086,-0.00074035,-0
 .00021703,-0.00119475,0.00046598,0.00091773,0.04228533,0.07900535,0.28
 682368,-0.00013397,0.00023929,-0.00002307,0.00024983,0.00003726,-0.000
 26239,0.00099288,0.00156275,0.00054852,-0.00689854,-0.00323686,-0.0011
 0637,-0.01431130,0.03192104,0.00463219,-0.08316033,0.08540646,0.008504
 56,0.00001991,-0.00013764,0.00007079,-0.00026738,-0.00004456,0.0001035
 8,-0.00123052,0.00087315,-0.00031782,0.00130000,-0.00014681,-0.0003290
 9,0.00320736,-0.00045861,-0.00048773,0.00638247,-0.02331659,0.00452803
 ,0.00002041,-0.00001740,-0.00000437,-0.00001192,-0.00001739,0.00003038
 ,-0.00005763,-0.00007200,-0.00007933,0.00009069,-0.00012580,0.00007479
 ,0.00162124,-0.00018361,-0.00013110,-0.00036854,0.00010365,0.00025333,
 0.00012522,0.00001045,-0.00005795,0.00000828,-0.00016570,0.00016879,-0
 .00118714,0.00024524,0.00007270,0.00091328,-0.00050390,-0.00041401,0.0
 0414666,-0.00564947,-0.00191383,0.08854624,-0.00002846,-0.00005011,0.0
 0002412,-0.00000299,-0.00004754,0.00008876,-0.00016462,0.00011315,-0.0
 0012852,-0.00037122,0.00083944,0.00080523,0.00043794,-0.00154032,-0.00
 045038,0.08496092,-0.26496006,-0.03344324,0.00002022,0.00004607,-0.000
 04150,0.00011080,0.00000611,-0.00004549,0.00009324,-0.00001609,-0.0000
 2563,0.00067614,-0.00044743,0.00003797,-0.00051123,0.00210830,-0.00065
 308,-0.00366017,-0.02350068,0.01115187,0.00000005,0.00000241,0.0000043
 8,0.00000990,0.00000096,-0.00000194,0.00004683,0.00000612,0.00001417,-
 0.00012597,0.00013356,0.00002701,0.00022824,0.00061147,0.00028765,0.00
 010788,-0.00019171,-0.00004337,-0.00003030,0.00001194,0.00000810,-0.00
 011523,0.00004651,-0.00001234,-0.00128305,0.00080848,-0.00018090,0.000
 71735,0.00006304,0.00046877,0.00521808,-0.00820692,-0.00307484,-0.0863
 3464,0.29416889,-0.00005603,0.00001158,0.00000186,-0.00002075,0.000011
 85,-0.00003475,-0.00003553,0.00028700,0.00045070,-0.00075068,-0.000526
 06,0.00010398,-0.00574470,0.00784630,0.00094583,0.01135498,-0.03680145
 ,-0.05641893,0.00002270,0.00000091,-0.00001333,-0.00002924,-0.00001453
 ,0.00001846,-0.00015972,0.00003516,-0.00003082,-0.00041653,-0.00002673
 ,-0.00003864,0.00113449,-0.00033788,-0.00005066,-0.00242798,0.03195346
 ,-0.00261140,0.00000035,-0.00000397,-0.00000242,-0.00000694,0.00000234
 ,0.00000361,0.00007602,-0.00000204,-0.00000202,-0.00020571,0.00033647,
 0.00027924,0.00053207,0.00051592,0.00050788,0.00004064,-0.00040517,-0.
 00004971,0.00001310,0.00000119,-0.00000566,0.00005303,-0.00003071,0.00
 000007,0.00096921,-0.00039965,-0.00011981,-0.00100662,-0.00052211,0.00
 020481,0.01051231,-0.02710931,-0.00234120,-0.01384936,0.02518093,0.059
 19978,-0.00052443,-0.00101972,0.00149243,0.00033914,-0.00010869,-0.000
 28450,-0.00013025,-0.00003168,0.00023488,-0.00008316,-0.00005171,0.000
 00402,-0.00004557,-0.00012718,0.00017675,-0.00005179,0.00000292,-0.000
 01010,-0.00795062,-0.00277985,0.00605671,-0.00016696,0.00034404,-0.000
 12015,0.00006457,0.00022757,-0.00013754,0.00008139,0.00007743,-0.00006
 280,0.00039907,0.00005685,-0.00014153,0.00007488,0.00003289,-0.0000274
 4,0.00017588,0.00009690,-0.00050857,-0.00000592,0.00001783,-0.00000916
 ,0.00000980,-0.00000654,-0.00001613,0.00000403,-0.00000360,0.00000427,
 -0.00000024,0.00000803,-0.00001824,-0.00007760,-0.00000101,-0.00000998
 ,-0.00003499,-0.00002376,0.00007317,-0.00002299,0.00000516,0.00000428,
 -0.00002066,-0.00000235,0.00000646,-0.00000281,0.00000086,-0.00000426,
 0.,-0.00000069,0.00000050,0.00000283,0.00000029,0.00000090,0.00796640,
 -0.00106378,-0.00175360,0.00197642,0.00011622,-0.00023382,-0.00014212,
 -0.00015734,-0.00008105,0.00026827,-0.00012459,-0.00004157,-0.00000079
 ,-0.00002866,-0.00011705,0.00018919,-0.00005712,0.00001862,-0.00002697
 ,-0.00252476,-0.00506663,0.00527790,-0.00011283,0.00046855,-0.00020521
 ,0.00010277,0.00025475,-0.00016381,0.00012433,0.00007025,-0.00008006,0
 .00055521,0.00000072,-0.00015960,0.00008679,0.00001527,-0.00001973,-0.
 00000700,0.00020905,-0.00066767,-0.00002301,0.00002298,-0.00001928,0.0
 0001498,-0.00000158,-0.00002450,0.00000710,-0.00000575,0.00000196,0.00
 000045,0.00000762,-0.00001864,-0.00008874,0.00006259,-0.00003284,-0.00
 004849,-0.00004497,0.00011019,-0.00003140,-0.00000014,0.00000972,-0.00
 003347,0.00001018,0.00000904,-0.00000257,0.00000566,-0.00000484,-0.000
 00180,0.00000312,0.00000215,0.00001170,-0.00000559,-0.00000350,0.00328
 601,0.00620242,0.00159012,0.00203211,-0.00388694,-0.00013778,0.0003062
 9,0.00073195,0.00025144,0.00007135,-0.00043889,0.00019076,0.00008509,0
 .00003257,0.00004994,0.00022189,-0.00031851,0.00009537,-0.00001889,0.0
 0006325,0.00568276,0.00532853,-0.00982281,0.00022423,-0.00086602,0.000
 26569,-0.00016847,-0.00045016,0.00024714,-0.00018502,-0.00013165,0.000
 09319,-0.00088587,-0.00006699,0.00024034,-0.00013980,-0.00004433,0.000
 02098,-0.00011728,-0.00011824,0.00081373,-0.00002912,-0.00005648,-0.00
 000543,-0.00001308,0.00001264,0.00000950,-0.00001679,0.00000537,-0.000
 01811,0.00000202,-0.00001166,0.00002160,0.00012007,-0.00007013,0.00008
 487,0.00009595,0.00005869,-0.00016356,0.00005537,-0.00000400,0.0000009
 7,0.00004805,-0.00000191,-0.00000482,0.00000224,-0.00000253,0.00001504
 ,0.00000009,-0.00000595,-0.00000800,-0.00001124,0.00000228,0.00000314,
 -0.00670395,-0.00627529,0.01202311\\0.00000122,-0.00000313,-0.00000182
 ,-0.00000279,-0.00000221,-0.00000081,0.00000021,-0.00000075,-0.0000003
 1,-0.00000092,-0.00000020,0.00000159,0.00000113,0.00000238,-0.00000041
 ,0.00000053,0.00000243,0.00000107,0.00000132,-0.00000337,-0.00000248,0
 .00000083,-0.00000387,-0.00000109,-0.00000212,-0.00000080,0.00000112,-
 0.00000115,0.00000263,0.00000160,0.00000126,-0.00000019,-0.00000072,0.
 00000017,0.00000486,0.00000205,0.00000196,-0.00000172,-0.00000259,-0.0
 0000106,-0.00000290,-0.00000023,0.00000040,-0.00000005,-0.00000034,-0.
 00000165,0.00000030,0.00000124,0.00000164,0.00000219,-0.00000020,0.000
 00075,-0.00000015,-0.00000068,-0.00000174,-0.00000338,-0.00000041,-0.0
 0000221,0.00000007,0.00000172,-0.00000104,0.00000299,0.00000246,0.0000
 0008,0.00000482,0.00000227,-0.00000029,0.00000239,0.00000123,0.0000018
 9,0.00000351,0.00000027,0.00000158,-0.00000584,-0.00000452\\\@


 THE TEST OF A FIRST RATE INTELLIGENCE IS THE ABILITY TO HOLD TWO OPPOSED
 IDEAS IN THE MIND AT THE SAME TIME, AND STILL RETAIN THE ABILITY TO FUNCTION.
 ONE SHOULD, FOR EXAMPLE, BE ABLE TO SEE THAT THINGS ARE HOPELESS AND YET BE
 DETERMINED TO MAKE THEM OTHERWISE.

                                                       -- F. SCOTT FITZGERALD
 Job cpu time:  0 days 13 hours 47 minutes 23.0 seconds.
 File lengths (MBytes):  RWF=    624 Int=      0 D2E=      0 Chk=     23 Scr=      1
 Normal termination of Gaussian 09 at Sat Apr  6 09:34:19 2013.
