 Entering Gaussian System, Link 0=g09
 Initial command:
 /opt/gaussian//g09/l1.exe /scratch/g09/Gau-18010.inp -scrdir=/scratch/g09/
 Entering Link 1 = /opt/gaussian//g09/l1.exe PID=     18011.
  
 Copyright (c) 1988,1990,1992,1993,1995,1998,2003,2009,2010,
            Gaussian, Inc.  All Rights Reserved.
  
 This is part of the Gaussian(R) 09 program.  It is based on
 the Gaussian(R) 03 system (copyright 2003, Gaussian, Inc.),
 the Gaussian(R) 98 system (copyright 1998, Gaussian, Inc.),
 the Gaussian(R) 94 system (copyright 1995, Gaussian, Inc.),
 the Gaussian 92(TM) system (copyright 1992, Gaussian, Inc.),
 the Gaussian 90(TM) system (copyright 1990, Gaussian, Inc.),
 the Gaussian 88(TM) system (copyright 1988, Gaussian, Inc.),
 the Gaussian 86(TM) system (copyright 1986, Carnegie Mellon
 University), and the Gaussian 82(TM) system (copyright 1983,
 Carnegie Mellon University). Gaussian is a federally registered
 trademark of Gaussian, Inc.
  
 This software contains proprietary and confidential information,
 including trade secrets, belonging to Gaussian, Inc.
  
 This software is provided under written license and may be
 used, copied, transmitted, or stored only in accord with that
 written license.
  
 The following legend is applicable only to US Government
 contracts under FAR:
  
                    RESTRICTED RIGHTS LEGEND
  
 Use, reproduction and disclosure by the US Government is
 subject to restrictions as set forth in subparagraphs (a)
 and (c) of the Commercial Computer Software - Restricted
 Rights clause in FAR 52.227-19.
  
 Gaussian, Inc.
 340 Quinnipiac St., Bldg. 40, Wallingford CT 06492
  
  
 ---------------------------------------------------------------
 Warning -- This program may not be used in any manner that
 competes with the business of Gaussian, Inc. or will provide
 assistance to any competitor of Gaussian, Inc.  The licensee
 of this program is prohibited from giving any competitor of
 Gaussian, Inc. access to this program.  By using this program,
 the user acknowledges that Gaussian, Inc. is engaged in the
 business of creating and licensing software in the field of
 computational chemistry and represents and warrants to the
 licensee that it is not a competitor of Gaussian, Inc. and that
 it will not use this program in any manner prohibited above.
 ---------------------------------------------------------------
  

 Cite this work as:
 Gaussian 09, Revision B.01,
 M. J. Frisch, G. W. Trucks, H. B. Schlegel, G. E. Scuseria, 
 M. A. Robb, J. R. Cheeseman, G. Scalmani, V. Barone, B. Mennucci, 
 G. A. Petersson, H. Nakatsuji, M. Caricato, X. Li, H. P. Hratchian, 
 A. F. Izmaylov, J. Bloino, G. Zheng, J. L. Sonnenberg, M. Hada, 
 M. Ehara, K. Toyota, R. Fukuda, J. Hasegawa, M. Ishida, T. Nakajima, 
 Y. Honda, O. Kitao, H. Nakai, T. Vreven, J. A. Montgomery, Jr., 
 J. E. Peralta, F. Ogliaro, M. Bearpark, J. J. Heyd, E. Brothers, 
 K. N. Kudin, V. N. Staroverov, T. Keith, R. Kobayashi, J. Normand, 
 K. Raghavachari, A. Rendell, J. C. Burant, S. S. Iyengar, J. Tomasi, 
 M. Cossi, N. Rega, J. M. Millam, M. Klene, J. E. Knox, J. B. Cross, 
 V. Bakken, C. Adamo, J. Jaramillo, R. Gomperts, R. E. Stratmann, 
 O. Yazyev, A. J. Austin, R. Cammi, C. Pomelli, J. W. Ochterski, 
 R. L. Martin, K. Morokuma, V. G. Zakrzewski, G. A. Voth, 
 P. Salvador, J. J. Dannenberg, S. Dapprich, A. D. Daniels, 
 O. Farkas, J. B. Foresman, J. V. Ortiz, J. Cioslowski, 
 and D. J. Fox, Gaussian, Inc., Wallingford CT, 2010.
 
 ******************************************
 Gaussian 09:  EM64L-G09RevB.01 12-Aug-2010
                15-Apr-2012 
 ******************************************
 %chk=gaussian/glucose/glucANaO6c.chk
 %mem=30GB
 %nproc=8
 Will use up to    8 processors via shared memory.
 Default route:  MaxDisk=210GB
 ----------------------------------------------------------------------
 # opt m062x/6-31+g(2df,p) nosymm scrf=(solvent=ethanol) scf=(xqc,conve
 r=6,maxcycle=1000)
 ----------------------------------------------------------------------
 1/14=-1,18=20,19=15,26=3,38=1/1,3;
 2/9=110,12=2,15=1,17=6,18=5,40=1/2;
 3/5=1,6=6,7=114,11=2,16=1,25=1,30=1,70=2201,71=1,72=4,74=-55/1,2,3;
 4//1;
 5/5=2,6=6,7=1000,8=3,13=1,38=5,53=4/2,8;
 6/7=2,8=2,9=2,10=2,28=1/1;
 7/30=1/1,2,3,16;
 1/14=-1,18=20,19=15/3(2);
 2/9=110,15=1/2;
 99//99;
 2/9=110,15=1/2;
 3/5=1,6=6,7=114,11=2,16=1,25=1,30=1,70=2205,71=1,72=4,74=-55/1,2,3;
 4/5=5,16=3/1;
 5/5=2,6=6,7=1000,8=3,13=1,38=5,53=4/2,8;
 7/30=1/1,2,3,16;
 1/14=-1,18=20,19=15/3(-5);
 2/9=110,15=1/2;
 6/7=2,8=2,9=2,10=2,19=2,28=1/1;
 99/9=1/99;
 ----------------------------------------------------------
 glucANaO6c from glucANa1td1f.log last step plus adjustment
 ----------------------------------------------------------
 Symbolic Z-matrix:
 Charge =  1 Multiplicity = 1
 6                     3.33342  -5.38797   0.20156 
 6                     4.62788  -4.6357    0.51283 
 6                     5.79411  -5.31687  -0.19217 
 6                     5.85149  -6.7907    0.17442 
 6                     4.5037   -7.45433  -0.18335 
 6                     4.36328  -8.88768   0.25389 
 8                     3.057    -5.16344  -1.152 
 8                     4.53898  -3.27813   0.14957 
 8                     7.03458  -4.75071   0.17683 
 8                     6.92009  -7.41137  -0.52108 
 8                     3.46909  -6.75393   0.50114 
 8                     5.35989  -9.73577  -0.28721 
 1                     2.51526  -5.03378   0.83499 
 1                     7.03672  -3.82487  -0.09138 
 1                     7.63757  -6.76436  -0.55542 
 1                     6.21681  -9.30369  -0.20787 
 1                     4.79919  -4.66784   1.59347 
 1                     5.65237  -5.23725  -1.28126 
 1                     6.00891  -6.88154   1.26087 
 1                     4.36597  -7.36031  -1.27068 
 1                     4.46281  -8.94151   1.34217 
 1                     3.36187  -9.23696  -0.01602 
 1                     2.13776  -5.38396  -1.33548 
 1                     4.14306  -3.24028  -0.7311 
 11                    5.19612  -12.12393  -0.11435 
 

 GradGradGradGradGradGradGradGradGradGradGradGradGradGradGradGradGradGrad
 Berny optimization.
 Initialization pass.
                           ----------------------------
                           !    Initial Parameters    !
                           ! (Angstroms and Degrees)  !
 --------------------------                            --------------------------
 ! Name  Definition              Value          Derivative Info.                !
 --------------------------------------------------------------------------------
 ! R1    R(1,2)                  1.5292         estimate D2E/DX2                !
 ! R2    R(1,7)                  1.3996         estimate D2E/DX2                !
 ! R3    R(1,11)                 1.405          estimate D2E/DX2                !
 ! R4    R(1,13)                 1.0936         estimate D2E/DX2                !
 ! R5    R(2,3)                  1.5235         estimate D2E/DX2                !
 ! R6    R(2,8)                  1.4081         estimate D2E/DX2                !
 ! R7    R(2,17)                 1.0946         estimate D2E/DX2                !
 ! R8    R(3,4)                  1.5198         estimate D2E/DX2                !
 ! R9    R(3,9)                  1.4126         estimate D2E/DX2                !
 ! R10   R(3,18)                 1.1012         estimate D2E/DX2                !
 ! R11   R(4,5)                  1.5443         estimate D2E/DX2                !
 ! R12   R(4,10)                 1.418          estimate D2E/DX2                !
 ! R13   R(4,19)                 1.1016         estimate D2E/DX2                !
 ! R14   R(5,6)                  1.5051         estimate D2E/DX2                !
 ! R15   R(5,11)                 1.4246         estimate D2E/DX2                !
 ! R16   R(5,20)                 1.1            estimate D2E/DX2                !
 ! R17   R(6,12)                 1.4161         estimate D2E/DX2                !
 ! R18   R(6,21)                 1.0941         estimate D2E/DX2                !
 ! R19   R(6,22)                 1.0944         estimate D2E/DX2                !
 ! R20   R(7,23)                 0.963          estimate D2E/DX2                !
 ! R21   R(8,24)                 0.9663         estimate D2E/DX2                !
 ! R22   R(9,14)                 0.9639         estimate D2E/DX2                !
 ! R23   R(10,15)                0.9667         estimate D2E/DX2                !
 ! R24   R(12,16)                0.963          estimate D2E/DX2                !
 ! R25   R(12,25)                2.4            estimate D2E/DX2                !
 ! A1    A(2,1,7)              106.5658         estimate D2E/DX2                !
 ! A2    A(2,1,11)             110.6791         estimate D2E/DX2                !
 ! A3    A(2,1,13)             110.8587         estimate D2E/DX2                !
 ! A4    A(7,1,11)             112.4106         estimate D2E/DX2                !
 ! A5    A(7,1,13)             111.1258         estimate D2E/DX2                !
 ! A6    A(11,1,13)            105.2838         estimate D2E/DX2                !
 ! A7    A(1,2,3)              109.5025         estimate D2E/DX2                !
 ! A8    A(1,2,8)              111.6121         estimate D2E/DX2                !
 ! A9    A(1,2,17)             108.6017         estimate D2E/DX2                !
 ! A10   A(3,2,8)              111.1            estimate D2E/DX2                !
 ! A11   A(3,2,17)             108.8995         estimate D2E/DX2                !
 ! A12   A(8,2,17)             107.0297         estimate D2E/DX2                !
 ! A13   A(2,3,4)              110.5398         estimate D2E/DX2                !
 ! A14   A(2,3,9)              111.8475         estimate D2E/DX2                !
 ! A15   A(2,3,18)             109.0757         estimate D2E/DX2                !
 ! A16   A(4,3,9)              107.0077         estimate D2E/DX2                !
 ! A17   A(4,3,18)             108.2723         estimate D2E/DX2                !
 ! A18   A(9,3,18)             110.0235         estimate D2E/DX2                !
 ! A19   A(3,4,5)              109.1406         estimate D2E/DX2                !
 ! A20   A(3,4,10)             109.5478         estimate D2E/DX2                !
 ! A21   A(3,4,19)             108.8601         estimate D2E/DX2                !
 ! A22   A(5,4,10)             110.8525         estimate D2E/DX2                !
 ! A23   A(5,4,19)             108.5288         estimate D2E/DX2                !
 ! A24   A(10,4,19)            109.8743         estimate D2E/DX2                !
 ! A25   A(4,5,6)              115.046          estimate D2E/DX2                !
 ! A26   A(4,5,11)             108.1336         estimate D2E/DX2                !
 ! A27   A(4,5,20)             107.5493         estimate D2E/DX2                !
 ! A28   A(6,5,11)             105.1217         estimate D2E/DX2                !
 ! A29   A(6,5,20)             110.9077         estimate D2E/DX2                !
 ! A30   A(11,5,20)            109.9975         estimate D2E/DX2                !
 ! A31   A(5,6,12)             113.184          estimate D2E/DX2                !
 ! A32   A(5,6,21)             109.1058         estimate D2E/DX2                !
 ! A33   A(5,6,22)             108.5212         estimate D2E/DX2                !
 ! A34   A(12,6,21)            106.6531         estimate D2E/DX2                !
 ! A35   A(12,6,22)            111.0152         estimate D2E/DX2                !
 ! A36   A(21,6,22)            108.2302         estimate D2E/DX2                !
 ! A37   A(1,7,23)             109.6374         estimate D2E/DX2                !
 ! A38   A(2,8,24)             107.3814         estimate D2E/DX2                !
 ! A39   A(3,9,14)             108.3137         estimate D2E/DX2                !
 ! A40   A(4,10,15)            106.4852         estimate D2E/DX2                !
 ! A41   A(1,11,5)             116.4657         estimate D2E/DX2                !
 ! A42   A(6,12,16)            109.0307         estimate D2E/DX2                !
 ! A43   A(6,12,25)            121.3592         estimate D2E/DX2                !
 ! A44   A(16,12,25)           120.0844         estimate D2E/DX2                !
 ! D1    D(7,1,2,3)            -69.271          estimate D2E/DX2                !
 ! D2    D(7,1,2,8)             54.1714         estimate D2E/DX2                !
 ! D3    D(7,1,2,17)           171.9281         estimate D2E/DX2                !
 ! D4    D(11,1,2,3)            53.2371         estimate D2E/DX2                !
 ! D5    D(11,1,2,8)           176.6795         estimate D2E/DX2                !
 ! D6    D(11,1,2,17)          -65.5638         estimate D2E/DX2                !
 ! D7    D(13,1,2,3)           169.682          estimate D2E/DX2                !
 ! D8    D(13,1,2,8)           -66.8756         estimate D2E/DX2                !
 ! D9    D(13,1,2,17)           50.8811         estimate D2E/DX2                !
 ! D10   D(2,1,7,23)          -163.0847         estimate D2E/DX2                !
 ! D11   D(11,1,7,23)           75.5029         estimate D2E/DX2                !
 ! D12   D(13,1,7,23)          -42.2086         estimate D2E/DX2                !
 ! D13   D(2,1,11,5)           -58.9103         estimate D2E/DX2                !
 ! D14   D(7,1,11,5)            60.1219         estimate D2E/DX2                !
 ! D15   D(13,1,11,5)         -178.7571         estimate D2E/DX2                !
 ! D16   D(1,2,3,4)            -54.4569         estimate D2E/DX2                !
 ! D17   D(1,2,3,9)           -173.584          estimate D2E/DX2                !
 ! D18   D(1,2,3,18)            64.4794         estimate D2E/DX2                !
 ! D19   D(8,2,3,4)           -178.2008         estimate D2E/DX2                !
 ! D20   D(8,2,3,9)             62.6722         estimate D2E/DX2                !
 ! D21   D(8,2,3,18)           -59.2644         estimate D2E/DX2                !
 ! D22   D(17,2,3,4)            64.1594         estimate D2E/DX2                !
 ! D23   D(17,2,3,9)           -54.9677         estimate D2E/DX2                !
 ! D24   D(17,2,3,18)         -176.9043         estimate D2E/DX2                !
 ! D25   D(1,2,8,24)           -45.3889         estimate D2E/DX2                !
 ! D26   D(3,2,8,24)            77.1431         estimate D2E/DX2                !
 ! D27   D(17,2,8,24)         -164.0866         estimate D2E/DX2                !
 ! D28   D(2,3,4,5)             56.8486         estimate D2E/DX2                !
 ! D29   D(2,3,4,10)           178.387          estimate D2E/DX2                !
 ! D30   D(2,3,4,19)           -61.4471         estimate D2E/DX2                !
 ! D31   D(9,3,4,5)            178.8663         estimate D2E/DX2                !
 ! D32   D(9,3,4,10)           -59.5953         estimate D2E/DX2                !
 ! D33   D(9,3,4,19)            60.5706         estimate D2E/DX2                !
 ! D34   D(18,3,4,5)           -62.574          estimate D2E/DX2                !
 ! D35   D(18,3,4,10)           58.9645         estimate D2E/DX2                !
 ! D36   D(18,3,4,19)          179.1304         estimate D2E/DX2                !
 ! D37   D(2,3,9,14)           -61.8348         estimate D2E/DX2                !
 ! D38   D(4,3,9,14)           176.9715         estimate D2E/DX2                !
 ! D39   D(18,3,9,14)           59.556          estimate D2E/DX2                !
 ! D40   D(3,4,5,6)           -174.027          estimate D2E/DX2                !
 ! D41   D(3,4,5,11)           -56.8956         estimate D2E/DX2                !
 ! D42   D(3,4,5,20)            61.8543         estimate D2E/DX2                !
 ! D43   D(10,4,5,6)            65.229          estimate D2E/DX2                !
 ! D44   D(10,4,5,11)         -177.6396         estimate D2E/DX2                !
 ! D45   D(10,4,5,20)          -58.8897         estimate D2E/DX2                !
 ! D46   D(19,4,5,6)           -55.524          estimate D2E/DX2                !
 ! D47   D(19,4,5,11)           61.6074         estimate D2E/DX2                !
 ! D48   D(19,4,5,20)         -179.6427         estimate D2E/DX2                !
 ! D49   D(3,4,10,15)           36.6995         estimate D2E/DX2                !
 ! D50   D(5,4,10,15)          157.2019         estimate D2E/DX2                !
 ! D51   D(19,4,10,15)         -82.8453         estimate D2E/DX2                !
 ! D52   D(4,5,6,12)           -58.5113         estimate D2E/DX2                !
 ! D53   D(4,5,6,21)            60.0616         estimate D2E/DX2                !
 ! D54   D(4,5,6,22)           177.7848         estimate D2E/DX2                !
 ! D55   D(11,5,6,12)         -177.3361         estimate D2E/DX2                !
 ! D56   D(11,5,6,21)          -58.7633         estimate D2E/DX2                !
 ! D57   D(11,5,6,22)           58.9599         estimate D2E/DX2                !
 ! D58   D(20,5,6,12)           63.8186         estimate D2E/DX2                !
 ! D59   D(20,5,6,21)         -177.6085         estimate D2E/DX2                !
 ! D60   D(20,5,6,22)          -59.8853         estimate D2E/DX2                !
 ! D61   D(4,5,11,1)            60.198          estimate D2E/DX2                !
 ! D62   D(6,5,11,1)          -176.4384         estimate D2E/DX2                !
 ! D63   D(20,5,11,1)          -56.9845         estimate D2E/DX2                !
 ! D64   D(5,6,12,16)           44.974          estimate D2E/DX2                !
 ! D65   D(5,6,12,25)         -168.8066         estimate D2E/DX2                !
 ! D66   D(21,6,12,16)         -75.0102         estimate D2E/DX2                !
 ! D67   D(21,6,12,25)          71.2092         estimate D2E/DX2                !
 ! D68   D(22,6,12,16)         167.2983         estimate D2E/DX2                !
 ! D69   D(22,6,12,25)         -46.4822         estimate D2E/DX2                !
 --------------------------------------------------------------------------------
 Trust Radius=3.00D-01 FncErr=1.00D-07 GrdErr=1.00D-06
 Number of steps in this run=    148 maximum allowed number of steps=    150.
 GradGradGradGradGradGradGradGradGradGradGradGradGradGradGradGradGradGrad

                          Input orientation:                          
 ---------------------------------------------------------------------
 Center     Atomic      Atomic             Coordinates (Angstroms)
 Number     Number       Type             X           Y           Z
 ---------------------------------------------------------------------
      1          6           0        3.333425   -5.387965    0.201564
      2          6           0        4.627880   -4.635702    0.512827
      3          6           0        5.794110   -5.316868   -0.192168
      4          6           0        5.851491   -6.790704    0.174418
      5          6           0        4.503696   -7.454332   -0.183353
      6          6           0        4.363283   -8.887678    0.253888
      7          8           0        3.057002   -5.163437   -1.151996
      8          8           0        4.538983   -3.278127    0.149567
      9          8           0        7.034582   -4.750711    0.176827
     10          8           0        6.920093   -7.411366   -0.521084
     11          8           0        3.469087   -6.753926    0.501143
     12          8           0        5.359895   -9.735771   -0.287205
     13          1           0        2.515258   -5.033778    0.834985
     14          1           0        7.036716   -3.824867   -0.091383
     15          1           0        7.637573   -6.764361   -0.555417
     16          1           0        6.216813   -9.303691   -0.207871
     17          1           0        4.799189   -4.667843    1.593465
     18          1           0        5.652374   -5.237253   -1.281257
     19          1           0        6.008914   -6.881539    1.260873
     20          1           0        4.365972   -7.360308   -1.270680
     21          1           0        4.462806   -8.941510    1.342166
     22          1           0        3.361868   -9.236955   -0.016017
     23          1           0        2.137764   -5.383961   -1.335483
     24          1           0        4.143056   -3.240281   -0.731100
     25         11           0        5.196122  -12.123929   -0.114348
 ---------------------------------------------------------------------
                    Distance matrix (angstroms):
                    1          2          3          4          5
     1  C    0.000000
     2  C    1.529183   0.000000
     3  C    2.493001   1.523515   0.000000
     4  C    2.882546   2.501155   1.519825   0.000000
     5  C    2.405737   2.905988   2.496797   1.544330   0.000000
     6  C    3.648470   4.268063   3.872585   2.572621   1.505117
     7  O    1.399624   2.349000   2.904578   3.495218   2.877394
     8  O    2.430533   1.408145   2.418387   3.749865   4.189603
     9  O    3.755698   2.432763   1.412609   2.358237   3.720844
    10  O    4.180976   3.745333   2.400613   1.418046   2.440262
    11  O    1.404992   2.414500   2.819849   2.404984   1.424612
    12  O    4.821711   5.214077   4.441202   3.021288   2.439021
    13  H    1.093649   2.173804   3.447616   3.828000   3.293931
    14  H    4.030317   2.612472   1.944298   3.204933   4.426925
    15  H    4.581831   3.838044   2.371822   1.929622   3.230429
    16  H    4.880008   4.983396   4.009199   2.568017   2.521012
    17  H    2.145794   1.094604   2.144665   2.761806   3.317969
    18  H    2.756628   2.151788   1.101155   2.138188   2.727690
    19  H    3.242089   2.740549   2.146081   1.101552   2.163230
    20  H    2.669043   3.266951   2.716322   2.149307   1.100039
    21  H    3.899251   4.388056   4.155067   2.813903   2.130864
    22  H    3.855240   4.801457   4.616699   3.495516   2.123563
    23  H    1.947339   3.190113   3.831518   4.248587   3.348354
    24  H    2.477481   1.931220   2.707146   4.042798   4.264776
    25  Na   6.995902   7.535900   6.833719   5.381095   4.721160
                    6          7          8          9         10
     6  C    0.000000
     7  O    4.189613   0.000000
     8  O    5.613271   2.728503   0.000000
     9  O    4.925066   4.213937   2.897803   0.000000
    10  O    3.052434   4.513835   4.816962   2.753048   0.000000
    11  O    2.326718   2.330738   3.653692   4.102537   3.658772
    12  O    1.416079   5.192054   6.524250   5.279274   2.809230
    13  H    4.313400   2.063587   2.765424   4.575761   5.185982
    14  H    5.735722   4.330681   2.568200   0.963913   3.614031
    15  H    3.985527   4.888814   4.717213   2.225886   0.966733
    16  H    1.954959   5.293155   6.265006   4.641807   2.042939
    17  H    4.448762   3.289132   2.020856   2.647775   4.061584
    18  H    4.164616   2.599638   2.669284   2.067180   2.629018
    19  H    2.783292   4.181818   4.047255   2.601457   2.070347
    20  H    2.158049   2.560026   4.325648   4.003342   2.662335
    21  H    1.094144   4.740355   5.788091   5.053202   3.442572
    22  H    1.094384   4.239923   6.076237   5.801070   4.030984
    23  H    4.444667   0.962962   3.522181   5.164001   5.257783
    24  H    5.736880   2.248376   0.966315   3.386244   5.015375
    25  Na   3.361925   7.355338   8.874103   7.604543   5.034457
                   11         12         13         14         15
    11  O    0.000000
    12  O    3.617740   0.000000
    13  H    1.995032   5.608922   0.000000
    14  H    4.653864   6.147264   4.771080   0.000000
    15  H    4.300314   3.753536   5.582674   3.035948   0.000000
    16  H    3.814970   0.962962   5.746409   5.541058   2.930451
    17  H    2.704456   5.434630   2.434243   2.925038   4.131526
    18  H    3.200623   4.616313   3.789641   2.308037   2.607665
    19  H    2.654090   3.311255   3.975076   3.496887   2.442370
    20  H    2.076404   2.756434   3.643036   4.585079   3.401488
    21  H    2.545647   2.022491   4.395514   5.904245   4.291846
    22  H    2.538579   2.077131   4.371230   6.542239   4.968534
    23  H    2.649985   5.515366   2.230709   5.289450   5.723801
    24  H    3.783961   6.623378   2.884264   3.020636   4.966050
    25  Na   5.674364   2.400000   7.639274   8.500750   5.905945
                   16         17         18         19         20
    16  H    0.000000
    17  H    5.171611   0.000000
    18  H    4.243426   3.052242   0.000000
    19  H    2.840291   2.544504   3.048478   0.000000
    20  H    2.886505   3.954790   2.482398   3.055689   0.000000
    21  H    2.368614   4.294244   4.692434   2.576925   3.055575
    22  H    2.862163   5.053030   4.779631   3.766336   2.470670
    23  H    5.768400   4.021783   3.518088   4.895876   2.979103
    24  H    6.429555   2.805717   2.562931   4.550620   4.161185
    25  Na   3.000717   7.659464   6.999725   5.480376   4.971754
                   21         22         23         24         25
    21  H    0.000000
    22  H    1.773136   0.000000
    23  H    5.023124   4.252645   0.000000
    24  H    6.074923   6.089475   2.996971   0.000000
    25  Na   3.575888   3.421808   7.501459   8.967081   0.000000
 Symmetry turned off by external request.
 Stoichiometry    C6H12NaO6(1+)
 Framework group  C1[X(C6H12NaO6)]
 Deg. of freedom    69
 Full point group                 C1      NOp   1
 Rotational constants (GHZ):      1.3883236      0.3687564      0.3089125
 Standard basis: 6-31+G(2df,p) (6D, 7F)
 Integral buffers will be    131072 words long.
 Raffenetti 2 integral format.
 Two-electron integral symmetry is turned off.
   480 basis functions,   732 primitive gaussians,   519 cartesian basis functions
    53 alpha electrons       53 beta electrons
       nuclear repulsion energy       945.2220177443 Hartrees.
 NAtoms=   25 NActive=   25 NUniq=   25 SFac= 1.00D+00 NAtFMM=   50 NAOKFM=F Big=F
 ------------------------------------------------------------------------------
 Polarizable Continuum Model (PCM)
 =================================
 Model                : PCM.
 Atomic radii         : UFF (Universal Force Field).
 Polarization charges : Total charges.
 Charge compensation  : None.
 Solution method      : Matrix inversion.
 Cavity type          : Scaled VdW (van der Waals Surface) (Alpha=1.100).
 Cavity algorithm     : GePol (No added spheres)
                        Default sphere list used, NSphG=   25.
                        Lebedev-Laikov grids with approx.  5.0 points / Ang**2.
                        Smoothing algorithm: Karplus/York (Gamma=1.0000).
                        Polarization charges: spherical gaussians, with
                                              point-specific exponents (IZeta= 3).
                        Self-potential: point-specific (ISelfS= 7).
                        Self-field    : sphere-specific E.n sum rule (ISelfD= 2).
 1st derivatives      : Analytical E(r).r(x)/FMM algorithm (CHGder, D1EAlg=3).
                        Cavity 1st derivative terms included.
 Solvent              : Ethanol, Eps=  24.852000 Eps(inf)=   1.852593
 ------------------------------------------------------------------------------
 One-electron integrals computed using PRISM.
 NBasis=   480 RedAO= T  NBF=   480
 NBsUse=   480 1.00D-06 NBFU=   480
 Harris functional with IExCor= 1009 diagonalized for initial guess.
 ExpMin= 7.60D-03 ExpMax= 9.99D+03 ExpMxC= 1.50D+03 IAcc=3 IRadAn=         0 AccDes= 0.00D+00
 HarFok:  IExCor= 1009 AccDes= 0.00D+00 IRadAn=         0 IDoV= 1
 ScaDFX=  1.000000  1.000000  1.000000  1.000000
 FoFCou: FMM=F IPFlag=           0 FMFlag=      100000 FMFlg1=           0
         NFxFlg=           0 DoJE=T BraDBF=F KetDBF=T FulRan=T
         Omega=  0.000000  0.000000  1.000000  0.000000  0.000000 ICntrl=     500 IOpCl=  0
         NMat0=    1 NMatS0=    1 NMatT0=    0 NMatD0=    1 NMtDS0=    0 NMtDT0=    0
         I1Cent=           4 NGrid=           0.
 Symmetry not used in FoFCou.
 Requested convergence on RMS density matrix=1.00D-06 within 128 cycles.
 Requested convergence on MAX density matrix=1.00D-04.
 Requested convergence on             energy=1.00D-04.
 No special actions if energy rises.
 Error on total polarization charges =  0.01029
 SCF Done:  E(RM062X) =  -849.227004286     A.U. after    8 cycles
             Convg  =    0.7977D-06             -V/T =  2.0058
 QCSCF skips out because SCF is already converged.

 **********************************************************************

            Population analysis using the SCF density.

 **********************************************************************

 Alpha  occ. eigenvalues --  -39.15493 -19.66802 -19.66682 -19.66160 -19.66084
 Alpha  occ. eigenvalues --  -19.65884 -19.65592 -10.66374 -10.61723 -10.61626
 Alpha  occ. eigenvalues --  -10.61181 -10.61144 -10.60907  -2.39871  -1.27701
 Alpha  occ. eigenvalues --   -1.27686  -1.27679  -1.22628  -1.18847  -1.17833
 Alpha  occ. eigenvalues --   -1.16692  -1.15521  -1.14969  -0.90227  -0.89030
 Alpha  occ. eigenvalues --   -0.79984  -0.74991  -0.73074  -0.69733  -0.64329
 Alpha  occ. eigenvalues --   -0.63578  -0.62174  -0.61234  -0.58599  -0.57532
 Alpha  occ. eigenvalues --   -0.56022  -0.54796  -0.53391  -0.51415  -0.50752
 Alpha  occ. eigenvalues --   -0.49859  -0.48604  -0.47068  -0.45450  -0.44971
 Alpha  occ. eigenvalues --   -0.42458  -0.41091  -0.39792  -0.39524  -0.37512
 Alpha  occ. eigenvalues --   -0.36951  -0.36758  -0.34125
 Alpha virt. eigenvalues --   -0.01466   0.00043   0.00120   0.00261   0.02018
 Alpha virt. eigenvalues --    0.02224   0.02748   0.03046   0.04080   0.04455
 Alpha virt. eigenvalues --    0.04894   0.04949   0.05491   0.05695   0.06457
 Alpha virt. eigenvalues --    0.06846   0.08561   0.08707   0.09924   0.10220
 Alpha virt. eigenvalues --    0.10729   0.11357   0.12004   0.12426   0.12581
 Alpha virt. eigenvalues --    0.13430   0.14932   0.15165   0.16052   0.16576
 Alpha virt. eigenvalues --    0.17268   0.17421   0.18516   0.18870   0.19448
 Alpha virt. eigenvalues --    0.20224   0.20372   0.20721   0.21558   0.21814
 Alpha virt. eigenvalues --    0.22102   0.22747   0.23526   0.23533   0.24268
 Alpha virt. eigenvalues --    0.24317   0.24623   0.25564   0.25698   0.26275
 Alpha virt. eigenvalues --    0.26965   0.27151   0.27994   0.28539   0.28981
 Alpha virt. eigenvalues --    0.29134   0.29449   0.30030   0.30280   0.31076
 Alpha virt. eigenvalues --    0.31663   0.31906   0.32437   0.32766   0.33616
 Alpha virt. eigenvalues --    0.33965   0.34586   0.35365   0.35925   0.36417
 Alpha virt. eigenvalues --    0.36799   0.37364   0.38192   0.39260   0.39714
 Alpha virt. eigenvalues --    0.40119   0.40297   0.41621   0.42515   0.42910
 Alpha virt. eigenvalues --    0.43129   0.44056   0.44667   0.45225   0.46289
 Alpha virt. eigenvalues --    0.46938   0.48141   0.48289   0.50397   0.56132
 Alpha virt. eigenvalues --    0.56465   0.56914   0.57940   0.60367   0.61406
 Alpha virt. eigenvalues --    0.62645   0.64274   0.64681   0.65752   0.67291
 Alpha virt. eigenvalues --    0.68792   0.69477   0.70780   0.71775   0.72410
 Alpha virt. eigenvalues --    0.74179   0.74865   0.76680   0.77033   0.78089
 Alpha virt. eigenvalues --    0.80012   0.81763   0.82613   0.84951   0.87661
 Alpha virt. eigenvalues --    0.89304   0.90764   0.92211   0.92671   0.94067
 Alpha virt. eigenvalues --    0.94801   0.95096   0.96027   0.96541   0.96935
 Alpha virt. eigenvalues --    0.97162   0.97333   0.98161   0.99186   0.99550
 Alpha virt. eigenvalues --    1.00528   1.01186   1.01309   1.02891   1.03057
 Alpha virt. eigenvalues --    1.04351   1.05680   1.06395   1.07342   1.08206
 Alpha virt. eigenvalues --    1.09368   1.11992   1.12840   1.14173   1.15058
 Alpha virt. eigenvalues --    1.16127   1.16991   1.18473   1.18694   1.20154
 Alpha virt. eigenvalues --    1.20580   1.21820   1.22675   1.23464   1.24400
 Alpha virt. eigenvalues --    1.25683   1.26600   1.27140   1.27888   1.29276
 Alpha virt. eigenvalues --    1.30879   1.31362   1.33311   1.33794   1.35268
 Alpha virt. eigenvalues --    1.37020   1.38169   1.39158   1.40431   1.41469
 Alpha virt. eigenvalues --    1.42313   1.44034   1.44803   1.46665   1.47346
 Alpha virt. eigenvalues --    1.49239   1.49595   1.51935   1.52909   1.53686
 Alpha virt. eigenvalues --    1.56925   1.57798   1.58825   1.60455   1.60521
 Alpha virt. eigenvalues --    1.63500   1.64903   1.66421   1.68056   1.69848
 Alpha virt. eigenvalues --    1.70962   1.72250   1.73520   1.73741   1.76220
 Alpha virt. eigenvalues --    1.77210   1.80746   1.81024   1.83764   1.87153
 Alpha virt. eigenvalues --    1.87740   1.89828   1.90854   1.94788   1.95797
 Alpha virt. eigenvalues --    1.96250   1.98642   2.01495   2.01769   2.04463
 Alpha virt. eigenvalues --    2.07006   2.08906   2.10552   2.11861   2.14787
 Alpha virt. eigenvalues --    2.17176   2.20966   2.25857   2.27608   2.30118
 Alpha virt. eigenvalues --    2.33708   2.36302   2.39092   2.39895   2.45940
 Alpha virt. eigenvalues --    2.49564   2.50229   2.54063   2.55899   2.56346
 Alpha virt. eigenvalues --    2.59743   2.61973   2.62965   2.64318   2.65688
 Alpha virt. eigenvalues --    2.67349   2.67986   2.72254   2.74263   2.75423
 Alpha virt. eigenvalues --    2.80390   2.81368   2.83312   2.84241   2.85684
 Alpha virt. eigenvalues --    2.88813   2.89622   2.91595   2.94209   2.96897
 Alpha virt. eigenvalues --    2.97565   2.98333   3.00260   3.01787   3.04107
 Alpha virt. eigenvalues --    3.07692   3.08679   3.09509   3.10482   3.12384
 Alpha virt. eigenvalues --    3.13829   3.16961   3.18375   3.20421   3.21243
 Alpha virt. eigenvalues --    3.22809   3.26426   3.29154   3.31658   3.33934
 Alpha virt. eigenvalues --    3.36224   3.37020   3.38690   3.41437   3.44380
 Alpha virt. eigenvalues --    3.46383   3.49339   3.51259   3.54482   3.55727
 Alpha virt. eigenvalues --    3.57159   3.61960   3.66412   3.67852   3.70214
 Alpha virt. eigenvalues --    3.71980   3.75537   3.76629   3.80545   3.83550
 Alpha virt. eigenvalues --    3.85155   3.89573   3.94508   3.95730   4.01469
 Alpha virt. eigenvalues --    4.02932   4.09093   4.12697   4.18320   4.20178
 Alpha virt. eigenvalues --    4.22915   4.24386   4.25890   4.27521   4.29924
 Alpha virt. eigenvalues --    4.33730   4.34099   4.37745   4.38846   4.40981
 Alpha virt. eigenvalues --    4.41182   4.41609   4.44274   4.46076   4.46406
 Alpha virt. eigenvalues --    4.47716   4.49838   4.50731   4.52957   4.53380
 Alpha virt. eigenvalues --    4.54217   4.54708   4.56513   4.59347   4.60333
 Alpha virt. eigenvalues --    4.61255   4.62892   4.64092   4.64451   4.64849
 Alpha virt. eigenvalues --    4.65592   4.66990   4.68786   4.70205   4.71303
 Alpha virt. eigenvalues --    4.72053   4.74013   4.75293   4.75413   4.76770
 Alpha virt. eigenvalues --    4.78171   4.80694   4.81106   4.83107   4.83443
 Alpha virt. eigenvalues --    4.86508   4.88456   4.89409   4.91932   4.93317
 Alpha virt. eigenvalues --    4.93977   4.96033   5.00360   5.04240   5.05048
 Alpha virt. eigenvalues --    5.06766   5.12945   5.14745   5.19872   5.21060
 Alpha virt. eigenvalues --    5.23113   5.25823   5.28891   5.31191   5.32265
 Alpha virt. eigenvalues --    5.35630   5.37118   5.38245   5.39872   5.40097
 Alpha virt. eigenvalues --    5.40595   5.43188   5.45264   5.48121   5.48550
 Alpha virt. eigenvalues --    5.48675   5.51568   5.52490   5.55499   5.55938
 Alpha virt. eigenvalues --    5.59269   5.63202   5.67410   5.69646   5.70218
 Alpha virt. eigenvalues --    5.75682   5.79358   5.80120   5.87055   5.91472
 Alpha virt. eigenvalues --    5.92844   5.94956   5.95655   5.97622   6.00254
 Alpha virt. eigenvalues --    6.02049   6.04161   6.04529   6.07595   6.08994
 Alpha virt. eigenvalues --    6.09866   6.11848   6.13592   6.16249   6.19710
 Alpha virt. eigenvalues --    6.29408   6.52036   6.94617   7.14775   7.21191
 Alpha virt. eigenvalues --    7.23315   7.27609   7.28091   7.43428   7.65703
 Alpha virt. eigenvalues --   11.95211  12.22975  12.43729  12.75129  12.93183
 Alpha virt. eigenvalues --   13.28423  13.47713  13.52531  13.55956  13.59590
 Alpha virt. eigenvalues --   13.66800  14.04395
          Condensed to atoms (all electrons):
              1          2          3          4          5          6
     1  C    5.317345   0.087290   0.108663  -0.052424  -0.136312  -0.113594
     2  C    0.087290   5.382615   0.228510  -0.203635   0.075327   0.014077
     3  C    0.108663   0.228510   5.421446   0.128999  -0.014963  -0.203823
     4  C   -0.052424  -0.203635   0.128999   5.751672  -0.129882   0.084800
     5  C   -0.136312   0.075327  -0.014963  -0.129882   6.569346  -0.488120
     6  C   -0.113594   0.014077  -0.203823   0.084800  -0.488120   5.895609
     7  O    0.196135  -0.023952  -0.035665  -0.010733   0.033531  -0.001656
     8  O   -0.044739   0.323598  -0.079804  -0.039376   0.010072  -0.001399
     9  O    0.022961  -0.065551   0.257686  -0.079185   0.015255  -0.005779
    10  O    0.007424  -0.018318   0.012443   0.257750  -0.069201  -0.039966
    11  O    0.185298  -0.054181   0.010042  -0.098378   0.289296  -0.096453
    12  O    0.001874   0.000192  -0.003787  -0.019950  -0.005224   0.182877
    13  H    0.380489   0.001639  -0.011241   0.007156   0.015856  -0.004905
    14  H    0.000590  -0.034184  -0.014042   0.021846   0.001988   0.001309
    15  H    0.000113   0.004354  -0.014020  -0.047130   0.027224  -0.002323
    16  H   -0.001374   0.000865  -0.003550   0.021051  -0.038603  -0.002513
    17  H   -0.046847   0.414933  -0.032767  -0.004969  -0.000028   0.006203
    18  H    0.028861  -0.062166   0.448109  -0.094899  -0.000841   0.004230
    19  H    0.013781  -0.023445   0.039189   0.341662  -0.051678  -0.013493
    20  H   -0.002864  -0.004915  -0.027279  -0.002013   0.267082   0.062137
    21  H    0.003274  -0.004423  -0.007359  -0.017546  -0.042944   0.440697
    22  H   -0.006677   0.003542  -0.000920   0.010522  -0.073579   0.452631
    23  H    0.014239  -0.009014   0.012363  -0.007849  -0.012168  -0.002107
    24  H   -0.027477   0.020251  -0.018257   0.005997  -0.004041  -0.000324
    25  Na  -0.000318  -0.000205  -0.000577   0.001920  -0.010427  -0.005169
              7          8          9         10         11         12
     1  C    0.196135  -0.044739   0.022961   0.007424   0.185298   0.001874
     2  C   -0.023952   0.323598  -0.065551  -0.018318  -0.054181   0.000192
     3  C   -0.035665  -0.079804   0.257686   0.012443   0.010042  -0.003787
     4  C   -0.010733  -0.039376  -0.079185   0.257750  -0.098378  -0.019950
     5  C    0.033531   0.010072   0.015255  -0.069201   0.289296  -0.005224
     6  C   -0.001656  -0.001399  -0.005779  -0.039966  -0.096453   0.182877
     7  O    8.177293  -0.014302   0.000551  -0.000627  -0.030797   0.000264
     8  O   -0.014302   8.115941  -0.006984   0.000398   0.002653   0.000011
     9  O    0.000551  -0.006984   8.169539  -0.026375  -0.002523  -0.000167
    10  O   -0.000627   0.000398  -0.026375   8.183942   0.006400  -0.015636
    11  O   -0.030797   0.002653  -0.002523   0.006400   7.979422   0.003572
    12  O    0.000264   0.000011  -0.000167  -0.015636   0.003572   8.131090
    13  H   -0.023219   0.000568  -0.000202   0.000000  -0.051338   0.000017
    14  H   -0.000142   0.008171   0.287023   0.001200   0.000018   0.000001
    15  H    0.000061  -0.000024   0.017841   0.272243  -0.000277   0.000930
    16  H   -0.000003  -0.000001  -0.000001   0.016228  -0.000250   0.293334
    17  H    0.003342  -0.038911  -0.001223   0.000248   0.002745  -0.000040
    18  H   -0.003640  -0.002297  -0.032097   0.002105   0.002893  -0.000140
    19  H   -0.000171   0.000584  -0.003400  -0.032642   0.012180   0.001601
    20  H   -0.001147  -0.000053   0.000204   0.004847  -0.008102   0.004062
    21  H    0.000083   0.000015   0.000015   0.000641   0.000631  -0.047050
    22  H   -0.000175  -0.000005   0.000002  -0.000383  -0.004903  -0.027872
    23  H    0.286569  -0.000318   0.000000   0.000018  -0.003233  -0.000017
    24  H    0.011130   0.282832  -0.001150  -0.000032   0.000182  -0.000001
    25  Na   0.000022  -0.000037   0.000017  -0.000020   0.000515   0.042148
             13         14         15         16         17         18
     1  C    0.380489   0.000590   0.000113  -0.001374  -0.046847   0.028861
     2  C    0.001639  -0.034184   0.004354   0.000865   0.414933  -0.062166
     3  C   -0.011241  -0.014042  -0.014020  -0.003550  -0.032767   0.448109
     4  C    0.007156   0.021846  -0.047130   0.021051  -0.004969  -0.094899
     5  C    0.015856   0.001988   0.027224  -0.038603  -0.000028  -0.000841
     6  C   -0.004905   0.001309  -0.002323  -0.002513   0.006203   0.004230
     7  O   -0.023219  -0.000142   0.000061  -0.000003   0.003342  -0.003640
     8  O    0.000568   0.008171  -0.000024  -0.000001  -0.038911  -0.002297
     9  O   -0.000202   0.287023   0.017841  -0.000001  -0.001223  -0.032097
    10  O    0.000000   0.001200   0.272243   0.016228   0.000248   0.002105
    11  O   -0.051338   0.000018  -0.000277  -0.000250   0.002745   0.002893
    12  O    0.000017   0.000001   0.000930   0.293334  -0.000040  -0.000140
    13  H    0.523692  -0.000002   0.000000   0.000000  -0.003389  -0.000189
    14  H   -0.000002   0.336948  -0.000604   0.000000  -0.000252  -0.004008
    15  H    0.000000  -0.000604   0.332363   0.000156   0.000001  -0.000677
    16  H    0.000000   0.000000   0.000156   0.308986   0.000000  -0.000001
    17  H   -0.003389  -0.000252   0.000001   0.000000   0.510532   0.003682
    18  H   -0.000189  -0.004008  -0.000677  -0.000001   0.003682   0.524945
    19  H   -0.000080  -0.000130  -0.000496  -0.000831   0.001207   0.003755
    20  H   -0.000028   0.000000  -0.000269  -0.000440  -0.000066   0.000784
    21  H    0.000006   0.000000  -0.000004  -0.002486  -0.000004  -0.000004
    22  H    0.000004   0.000000   0.000009   0.003521   0.000000   0.000000
    23  H   -0.006625   0.000000   0.000000   0.000000  -0.000112   0.000140
    24  H   -0.000050  -0.000150  -0.000001   0.000000   0.004718   0.000713
    25  Na  -0.000009  -0.000020  -0.000104  -0.006249   0.000030   0.000090
             19         20         21         22         23         24
     1  C    0.013781  -0.002864   0.003274  -0.006677   0.014239  -0.027477
     2  C   -0.023445  -0.004915  -0.004423   0.003542  -0.009014   0.020251
     3  C    0.039189  -0.027279  -0.007359  -0.000920   0.012363  -0.018257
     4  C    0.341662  -0.002013  -0.017546   0.010522  -0.007849   0.005997
     5  C   -0.051678   0.267082  -0.042944  -0.073579  -0.012168  -0.004041
     6  C   -0.013493   0.062137   0.440697   0.452631  -0.002107  -0.000324
     7  O   -0.000171  -0.001147   0.000083  -0.000175   0.286569   0.011130
     8  O    0.000584  -0.000053   0.000015  -0.000005  -0.000318   0.282832
     9  O   -0.003400   0.000204   0.000015   0.000002   0.000000  -0.001150
    10  O   -0.032642   0.004847   0.000641  -0.000383   0.000018  -0.000032
    11  O    0.012180  -0.008102   0.000631  -0.004903  -0.003233   0.000182
    12  O    0.001601   0.004062  -0.047050  -0.027872  -0.000017  -0.000001
    13  H   -0.000080  -0.000028   0.000006   0.000004  -0.006625  -0.000050
    14  H   -0.000130   0.000000   0.000000   0.000000   0.000000  -0.000150
    15  H   -0.000496  -0.000269  -0.000004   0.000009   0.000000  -0.000001
    16  H   -0.000831  -0.000440  -0.002486   0.003521   0.000000   0.000000
    17  H    0.001207  -0.000066  -0.000004   0.000000  -0.000112   0.004718
    18  H    0.003755   0.000784  -0.000004   0.000000   0.000140   0.000713
    19  H    0.537187   0.003754   0.001783  -0.000045   0.000005  -0.000014
    20  H    0.003754   0.529451   0.003908  -0.004849  -0.000038  -0.000008
    21  H    0.001783   0.003908   0.530014  -0.035581  -0.000001   0.000000
    22  H   -0.000045  -0.004849  -0.035581   0.494703   0.000000   0.000000
    23  H    0.000005  -0.000038  -0.000001   0.000000   0.322614  -0.000425
    24  H   -0.000014  -0.000008   0.000000   0.000000  -0.000425   0.340569
    25  Na   0.000066   0.000205   0.000917  -0.002562   0.000042   0.000015
             25
     1  C   -0.000318
     2  C   -0.000205
     3  C   -0.000577
     4  C    0.001920
     5  C   -0.010427
     6  C   -0.005169
     7  O    0.000022
     8  O   -0.000037
     9  O    0.000017
    10  O   -0.000020
    11  O    0.000515
    12  O    0.042148
    13  H   -0.000009
    14  H   -0.000020
    15  H   -0.000104
    16  H   -0.006249
    17  H    0.000030
    18  H    0.000090
    19  H    0.000066
    20  H    0.000205
    21  H    0.000917
    22  H   -0.002562
    23  H    0.000042
    24  H    0.000015
    25  Na   9.955581
 Mulliken atomic charges:
              1
     1  C    0.064291
     2  C   -0.053204
     3  C   -0.199398
     4  C    0.174591
     5  C   -0.226967
     6  C   -0.162945
     7  O   -0.562750
     8  O   -0.516593
     9  O   -0.546456
    10  O   -0.562686
    11  O   -0.145408
    12  O   -0.542089
    13  H    0.171851
    14  H    0.394441
    15  H    0.410633
    16  H    0.412160
    17  H    0.180968
    18  H    0.180652
    19  H    0.169671
    20  H    0.175636
    21  H    0.175417
    22  H    0.192618
    23  H    0.405918
    24  H    0.385522
    25  Na   1.024128
 Sum of Mulliken atomic charges =   1.00000
 Mulliken charges with hydrogens summed into heavy atoms:
              1
     1  C    0.236142
     2  C    0.127764
     3  C   -0.018745
     4  C    0.344262
     5  C   -0.051331
     6  C    0.205090
     7  O   -0.156832
     8  O   -0.131071
     9  O   -0.152016
    10  O   -0.152053
    11  O   -0.145408
    12  O   -0.129930
    25  Na   1.024128
 Sum of Mulliken charges with hydrogens summed into heavy atoms =   1.00000
 Electronic spatial extent (au):  <R**2>=          30213.2914
 Charge=              1.0000 electrons
 Dipole moment (field-independent basis, Debye):
    X=             22.7504    Y=            -53.9528    Z=             -1.2182  Tot=             58.5659
 Quadrupole moment (field-independent basis, Debye-Ang):
   XX=             43.7746   YY=            559.8148   ZZ=            -73.9221
   XY=           -266.4846   XZ=             -3.9754   YZ=              3.3052
 Traceless Quadrupole moment (field-independent basis, Debye-Ang):
   XX=           -132.7812   YY=            383.2590   ZZ=           -250.4779
   XY=           -266.4846   XZ=             -3.9754   YZ=              3.3052
 Octapole moment (field-independent basis, Debye-Ang**2):
  XXX=           -457.5536  YYY=          -6188.6053  ZZZ=             10.2918  XYY=           2844.4653
  XXY=           -888.2954  XXZ=            -24.1021  XZZ=           -368.1976  YZZ=            489.2763
  YYZ=            -12.4571  XYZ=             -0.7823
 Hexadecapole moment (field-independent basis, Debye-Ang**3):
 XXXX=          -8005.2244 YYYY=          72069.5880 ZZZZ=           -199.6285 XXXY=             -9.0424
 XXXZ=           -193.9401 YYYX=         -31939.7870 YYYZ=            142.6591 ZZZX=             57.1344
 ZZZY=            -87.0935 XXYY=          11147.2925 XXZZ=          -1989.1441 YYZZ=          -3616.3365
 XXYZ=            -13.4517 YYXZ=             75.8171 ZZXY=           2452.1914
 N-N= 9.452220177443D+02 E-N=-3.878825229879D+03  KE= 8.442900943523D+02
 D1PCM: PCM CHGder 1st derivatives, ID1Alg=3 FixD1E=F DoIter=F DoCFld=F I1PDM=0.
 Calling FoFJK, ICntrl=      2127 FMM=F ISym2X=0 I1Cent= 0 IOpClX= 0 NMat=1 NMatS=1 NMatT=0.
 -------------------------------------------------------------------
 Center     Atomic                   Forces (Hartrees/Bohr)
 Number     Number              X              Y              Z
 -------------------------------------------------------------------
      1        6           0.001424005   -0.001178158   -0.000703980
      2        6           0.000294899   -0.000065447   -0.000158233
      3        6          -0.001930328   -0.000398835   -0.000008763
      4        6          -0.002511564   -0.002371527    0.000639655
      5        6           0.005886932    0.018937514   -0.005133642
      6        6           0.006981368   -0.004326998    0.012786986
      7        8          -0.000143598    0.000164334   -0.000209165
      8        8          -0.000190862    0.000342044   -0.000034712
      9        8          -0.000010026   -0.000267466    0.000128361
     10        8          -0.003930517   -0.000626385    0.000018476
     11        8          -0.001285457   -0.003168679    0.000604342
     12        8          -0.007032878   -0.007050909   -0.009253545
     13        1          -0.000036652   -0.000147680    0.000028851
     14        1          -0.000080220   -0.000054588   -0.000052054
     15        1           0.000938690   -0.002597746    0.000671696
     16        1           0.002646178    0.002484499   -0.000643663
     17        1          -0.000011804    0.000003852   -0.000010672
     18        1          -0.000037649    0.000023948    0.000009082
     19        1          -0.000162002    0.000122741    0.000370414
     20        1          -0.000410784   -0.002351111    0.000325026
     21        1          -0.005321199    0.004261812    0.004126934
     22        1           0.004296722   -0.004184237   -0.002913003
     23        1           0.000077475   -0.000009866   -0.000025192
     24        1           0.000057306   -0.000024128    0.000016225
     25       11           0.000491961    0.002483015   -0.000579425
 -------------------------------------------------------------------
 Cartesian Forces:  Max     0.018937514 RMS     0.003699207

 GradGradGradGradGradGradGradGradGradGradGradGradGradGradGradGradGradGrad
 Berny optimization.
 Internal  Forces:  Max     0.009252348 RMS     0.002194549
 Search for a local minimum.
 Step number   1 out of a maximum of  148
 All quantities printed in internal units (Hartrees-Bohrs-Radians)
 Mixed Optimization -- RFO/linear search
 Second derivative matrix not updated -- first step.
 ITU=  0
     Eigenvalues ---    0.00642   0.00698   0.00736   0.01433   0.01453
     Eigenvalues ---    0.01479   0.01525   0.01584   0.01697   0.02634
     Eigenvalues ---    0.02989   0.03274   0.04274   0.04494   0.04669
     Eigenvalues ---    0.04859   0.04961   0.05263   0.05445   0.05791
     Eigenvalues ---    0.05893   0.06337   0.06573   0.06852   0.07125
     Eigenvalues ---    0.07351   0.08280   0.09144   0.09708   0.10561
     Eigenvalues ---    0.11117   0.13003   0.14617   0.16000   0.16000
     Eigenvalues ---    0.16000   0.16000   0.16000   0.16435   0.17177
     Eigenvalues ---    0.18309   0.19463   0.19860   0.22020   0.22620
     Eigenvalues ---    0.26827   0.28947   0.29145   0.29486   0.31846
     Eigenvalues ---    0.33511   0.33555   0.33678   0.34286   0.34311
     Eigenvalues ---    0.34338   0.34394   0.40163   0.42756   0.43056
     Eigenvalues ---    0.43090   0.43593   0.44297   0.45683   0.54050
     Eigenvalues ---    0.54137   0.54640   0.54841   0.54841
 RFO step:  Lambda=-5.64701339D-03 EMin= 6.42160336D-03
 Linear search not attempted -- first point.
 Iteration  1 RMS(Cart)=  0.06639830 RMS(Int)=  0.00208057
 Iteration  2 RMS(Cart)=  0.00341974 RMS(Int)=  0.00039960
 Iteration  3 RMS(Cart)=  0.00000838 RMS(Int)=  0.00039956
 Iteration  4 RMS(Cart)=  0.00000001 RMS(Int)=  0.00039956
 Variable       Old X    -DE/DX   Delta X   Delta X   Delta X     New X
                                 (Linear)    (Quad)   (Total)
    R1        2.88974   0.00049   0.00000   0.00362   0.00371   2.89345
    R2        2.64491   0.00029   0.00000   0.00062   0.00062   2.64553
    R3        2.65505  -0.00076   0.00000  -0.00039  -0.00033   2.65472
    R4        2.06670  -0.00001   0.00000  -0.00003  -0.00003   2.06667
    R5        2.87903  -0.00063   0.00000   0.00139   0.00138   2.88041
    R6        2.66101   0.00033   0.00000   0.00073   0.00073   2.66173
    R7        2.06850  -0.00001   0.00000  -0.00004  -0.00004   2.06846
    R8        2.87205  -0.00061   0.00000  -0.00410  -0.00416   2.86789
    R9        2.66944  -0.00017   0.00000  -0.00039  -0.00039   2.66905
   R10        2.08088  -0.00001   0.00000  -0.00002  -0.00002   2.08086
   R11        2.91836  -0.00921   0.00000  -0.03405  -0.03413   2.88423
   R12        2.67972  -0.00118   0.00000  -0.00273  -0.00273   2.67699
   R13        2.08163   0.00034   0.00000   0.00099   0.00099   2.08262
   R14        2.84426   0.00687   0.00000   0.02121   0.02121   2.86546
   R15        2.69213  -0.00179   0.00000  -0.00665  -0.00664   2.68549
   R16        2.07877  -0.00047   0.00000  -0.00137  -0.00137   2.07740
   R17        2.67600   0.00247   0.00000   0.00565   0.00565   2.68165
   R18        2.06763   0.00341   0.00000   0.00977   0.00977   2.07740
   R19        2.06809  -0.00187   0.00000  -0.00535  -0.00535   2.06274
   R20        1.81973  -0.00008   0.00000  -0.00014  -0.00014   1.81959
   R21        1.82607  -0.00004   0.00000  -0.00008  -0.00008   1.82599
   R22        1.82153  -0.00005   0.00000  -0.00009  -0.00009   1.82144
   R23        1.82686  -0.00108   0.00000  -0.00197  -0.00197   1.82489
   R24        1.81973   0.00340   0.00000   0.00614   0.00614   1.82587
   R25        4.53534  -0.00254   0.00000  -0.03683  -0.03683   4.49852
    A1        1.85992   0.00017   0.00000  -0.00185  -0.00195   1.85798
    A2        1.93171  -0.00068   0.00000   0.00379   0.00382   1.93554
    A3        1.93485   0.00011   0.00000   0.00042   0.00049   1.93534
    A4        1.96193   0.00059   0.00000  -0.00023  -0.00020   1.96173
    A5        1.93951  -0.00007   0.00000  -0.00065  -0.00064   1.93887
    A6        1.83755  -0.00014   0.00000  -0.00136  -0.00140   1.83615
    A7        1.91118  -0.00119   0.00000   0.00266   0.00246   1.91364
    A8        1.94800   0.00048   0.00000   0.00066   0.00071   1.94871
    A9        1.89546   0.00022   0.00000  -0.00254  -0.00248   1.89298
   A10        1.93906   0.00029   0.00000   0.00113   0.00116   1.94022
   A11        1.90066   0.00049   0.00000  -0.00175  -0.00166   1.89899
   A12        1.86802  -0.00025   0.00000  -0.00041  -0.00045   1.86757
   A13        1.92928   0.00031   0.00000  -0.00759  -0.00769   1.92160
   A14        1.95211   0.00066   0.00000   0.00195   0.00206   1.95417
   A15        1.90373  -0.00069   0.00000   0.00207   0.00200   1.90573
   A16        1.86764  -0.00033   0.00000   0.00022   0.00023   1.86787
   A17        1.88971  -0.00008   0.00000   0.00125   0.00129   1.89100
   A18        1.92027   0.00013   0.00000   0.00204   0.00202   1.92229
   A19        1.90486  -0.00082   0.00000  -0.00886  -0.00884   1.89602
   A20        1.91197   0.00385   0.00000   0.03335   0.03319   1.94516
   A21        1.89997   0.00044   0.00000   0.00615   0.00606   1.90603
   A22        1.93474  -0.00386   0.00000  -0.03030  -0.03002   1.90472
   A23        1.89418   0.00062   0.00000  -0.00053  -0.00062   1.89357
   A24        1.91767  -0.00020   0.00000   0.00034  -0.00015   1.91752
   A25        2.00793  -0.00678   0.00000  -0.04051  -0.04046   1.96747
   A26        1.88729   0.00257   0.00000   0.01084   0.01059   1.89788
   A27        1.87709   0.00308   0.00000   0.02287   0.02237   1.89946
   A28        1.83472   0.00152   0.00000   0.01423   0.01448   1.84920
   A29        1.93571   0.00014   0.00000  -0.01355  -0.01354   1.92216
   A30        1.91982  -0.00042   0.00000   0.00758   0.00745   1.92727
   A31        1.97543  -0.00556   0.00000  -0.02626  -0.02756   1.94788
   A32        1.90426  -0.00255   0.00000  -0.00011  -0.00053   1.90373
   A33        1.89405   0.00544   0.00000   0.00967   0.00712   1.90118
   A34        1.86145   0.00925   0.00000   0.09293   0.09361   1.95506
   A35        1.93758  -0.00551   0.00000  -0.07459  -0.07499   1.86259
   A36        1.88897  -0.00096   0.00000   0.00114   0.00263   1.89161
   A37        1.91353   0.00009   0.00000   0.00056   0.00056   1.91409
   A38        1.87416  -0.00003   0.00000  -0.00017  -0.00017   1.87399
   A39        1.89043  -0.00015   0.00000  -0.00091  -0.00091   1.88952
   A40        1.85852   0.00347   0.00000   0.02095   0.02095   1.87947
   A41        2.03271  -0.00207   0.00000  -0.02536  -0.02529   2.00742
   A42        1.90294  -0.00106   0.00000  -0.00025  -0.00040   1.90254
   A43        2.11812   0.00193   0.00000   0.01131   0.01116   2.12928
   A44        2.09587  -0.00012   0.00000   0.00662   0.00644   2.10230
    D1       -1.20901   0.00011   0.00000  -0.00657  -0.00652  -1.21552
    D2        0.94547  -0.00004   0.00000  -0.00279  -0.00279   0.94268
    D3        3.00071   0.00007   0.00000  -0.00449  -0.00447   2.99624
    D4        0.92916   0.00053   0.00000  -0.00578  -0.00574   0.92343
    D5        3.08364   0.00038   0.00000  -0.00201  -0.00201   3.08163
    D6       -1.14430   0.00050   0.00000  -0.00371  -0.00369  -1.14799
    D7        2.96151   0.00002   0.00000  -0.00487  -0.00481   2.95670
    D8       -1.16720  -0.00013   0.00000  -0.00109  -0.00108  -1.16828
    D9        0.88804  -0.00002   0.00000  -0.00280  -0.00276   0.88528
   D10       -2.84637  -0.00021   0.00000   0.00074   0.00073  -2.84564
   D11        1.31777   0.00016   0.00000  -0.00258  -0.00259   1.31519
   D12       -0.73668   0.00000   0.00000  -0.00028  -0.00026  -0.73694
   D13       -1.02818  -0.00031   0.00000   0.00271   0.00290  -1.02528
   D14        1.04933  -0.00017   0.00000   0.00279   0.00290   1.05223
   D15       -3.11990   0.00000   0.00000   0.00099   0.00111  -3.11879
   D16       -0.95045   0.00029   0.00000   0.00945   0.00944  -0.94101
   D17       -3.02961   0.00007   0.00000   0.01296   0.01293  -3.01668
   D18        1.12538  -0.00005   0.00000   0.00769   0.00763   1.13301
   D19       -3.11019   0.00033   0.00000   0.00597   0.00600  -3.10419
   D20        1.09384   0.00010   0.00000   0.00949   0.00950   1.10333
   D21       -1.03436  -0.00002   0.00000   0.00421   0.00420  -1.03016
   D22        1.11979   0.00016   0.00000   0.00688   0.00689   1.12669
   D23       -0.95937  -0.00007   0.00000   0.01040   0.01039  -0.94898
   D24       -3.08756  -0.00019   0.00000   0.00512   0.00508  -3.08248
   D25       -0.79219   0.00042   0.00000  -0.00442  -0.00433  -0.79652
   D26        1.34640  -0.00057   0.00000   0.00028   0.00018   1.34659
   D27       -2.86385   0.00003   0.00000  -0.00145  -0.00145  -2.86530
   D28        0.99219   0.00016   0.00000   0.00956   0.00937   1.00157
   D29        3.11344  -0.00271   0.00000  -0.01249  -0.01274   3.10070
   D30       -1.07245  -0.00037   0.00000   0.01173   0.01172  -1.06073
   D31        3.12181   0.00094   0.00000   0.00756   0.00748   3.12929
   D32       -1.04013  -0.00193   0.00000  -0.01448  -0.01463  -1.05476
   D33        1.05716   0.00041   0.00000   0.00974   0.00983   1.06699
   D34       -1.09212   0.00087   0.00000   0.01075   0.01067  -1.08145
   D35        1.02912  -0.00200   0.00000  -0.01130  -0.01144   1.01769
   D36        3.12641   0.00034   0.00000   0.01292   0.01303   3.13944
   D37       -1.07922   0.00029   0.00000  -0.00533  -0.00534  -1.08456
   D38        3.08873  -0.00028   0.00000   0.00272   0.00275   3.09149
   D39        1.03945  -0.00006   0.00000   0.00002   0.00000   1.03945
   D40       -3.03734  -0.00134   0.00000  -0.04070  -0.04073  -3.07807
   D41       -0.99302  -0.00176   0.00000  -0.03986  -0.03992  -1.03293
   D42        1.07956   0.00082   0.00000  -0.01251  -0.01225   1.06731
   D43        1.13846  -0.00315   0.00000  -0.05726  -0.05739   1.08107
   D44       -3.10040  -0.00357   0.00000  -0.05642  -0.05658   3.12621
   D45       -1.02782  -0.00099   0.00000  -0.02908  -0.02892  -1.05673
   D46       -0.96908  -0.00092   0.00000  -0.03866  -0.03883  -1.00791
   D47        1.07525  -0.00135   0.00000  -0.03782  -0.03802   1.03723
   D48       -3.13536   0.00123   0.00000  -0.01048  -0.01036   3.13747
   D49        0.64053   0.00233   0.00000   0.06581   0.06609   0.70662
   D50        2.74369   0.00136   0.00000   0.05721   0.05693   2.80063
   D51       -1.44592  -0.00046   0.00000   0.03748   0.03747  -1.40845
   D52       -1.02121  -0.00456   0.00000  -0.10807  -0.10833  -1.12954
   D53        1.04827   0.00184   0.00000  -0.00791  -0.00830   1.03997
   D54        3.10293   0.00235   0.00000  -0.00112  -0.00137   3.10156
   D55       -3.09510  -0.00495   0.00000  -0.10832  -0.10819   3.07990
   D56       -1.02561   0.00145   0.00000  -0.00816  -0.00816  -1.03377
   D57        1.02904   0.00196   0.00000  -0.00137  -0.00123   1.02782
   D58        1.11385  -0.00541   0.00000  -0.11863  -0.11838   0.99547
   D59       -3.09985   0.00099   0.00000  -0.01848  -0.01835  -3.11821
   D60       -1.04520   0.00149   0.00000  -0.01168  -0.01142  -1.05661
   D61        1.05065   0.00234   0.00000   0.02726   0.02720   1.07785
   D62       -3.07943  -0.00342   0.00000  -0.00667  -0.00673  -3.08616
   D63       -0.99457  -0.00261   0.00000  -0.01066  -0.01052  -1.00509
   D64        0.78494  -0.00049   0.00000   0.00976   0.00888   0.79382
   D65       -2.94623   0.00053   0.00000   0.03945   0.03863  -2.90760
   D66       -1.30918  -0.00021   0.00000  -0.03653  -0.03741  -1.34658
   D67        1.24284   0.00082   0.00000  -0.00684  -0.00766   1.23517
   D68        2.91991  -0.00155   0.00000  -0.05257  -0.05090   2.86901
   D69       -0.81127  -0.00052   0.00000  -0.02288  -0.02115  -0.83242
         Item               Value     Threshold  Converged?
 Maximum Force            0.009252     0.000450     NO 
 RMS     Force            0.002195     0.000300     NO 
 Maximum Displacement     0.345669     0.001800     NO 
 RMS     Displacement     0.066294     0.001200     NO 
 Predicted change in Energy=-3.073671D-03
 GradGradGradGradGradGradGradGradGradGradGradGradGradGradGradGradGradGrad

                          Input orientation:                          
 ---------------------------------------------------------------------
 Center     Atomic      Atomic             Coordinates (Angstroms)
 Number     Number       Type             X           Y           Z
 ---------------------------------------------------------------------
      1          6           0        3.326799   -5.380669    0.202871
      2          6           0        4.623686   -4.619511    0.491191
      3          6           0        5.792767   -5.323505   -0.187758
      4          6           0        5.832109   -6.783851    0.223362
      5          6           0        4.497181   -7.428737   -0.139384
      6          6           0        4.402461   -8.873187    0.312141
      7          8           0        3.050358   -5.192398   -1.156541
      8          8           0        4.536803   -3.272970    0.087173
      9          8           0        7.034315   -4.757641    0.177262
     10          8           0        6.877209   -7.478939   -0.433432
     11          8           0        3.457109   -6.738289    0.539626
     12          8           0        5.344966   -9.693710   -0.360306
     13          1           0        2.509083   -5.007800    0.826043
     14          1           0        7.046152   -3.839886   -0.117046
     15          1           0        7.648629   -6.898353   -0.453126
     16          1           0        6.202355   -9.248275   -0.366194
     17          1           0        4.792114   -4.618968    1.572738
     18          1           0        5.660104   -5.274314   -1.279773
     19          1           0        5.966883   -6.849635    1.315185
     20          1           0        4.355082   -7.362349   -1.227453
     21          1           0        4.522865   -8.916938    1.403964
     22          1           0        3.413233   -9.259111    0.059200
     23          1           0        2.130893   -5.416277   -1.334335
     24          1           0        4.144449   -3.261427   -0.795783
     25         11           0        5.220347  -12.070122   -0.297268
 ---------------------------------------------------------------------
                    Distance matrix (angstroms):
                    1          2          3          4          5
     1  C    0.000000
     2  C    1.531145   0.000000
     3  C    2.497370   1.524247   0.000000
     4  C    2.871570   2.493268   1.517623   0.000000
     5  C    2.383592   2.881905   2.472425   1.526268   0.000000
     6  C    3.656045   4.263186   3.844879   2.533199   1.516338
     7  O    1.399952   2.349166   2.911449   3.489268   2.851160
     8  O    2.433083   1.408529   2.420274   3.744683   4.162126
     9  O    3.759587   2.434905   1.412403   2.356470   3.697576
    10  O    4.172892   3.756278   2.425339   1.416602   2.398650
    11  O    1.404819   2.419187   2.825951   2.396398   1.421099
    12  O    4.795048   5.195458   4.396475   3.007533   2.428508
    13  H    1.093634   2.175877   3.451093   3.815768   3.278036
    14  H    4.038557   2.616507   1.943475   3.202610   4.402000
    15  H    4.627300   3.903221   2.448426   1.941775   3.211132
    16  H    4.852940   4.965154   3.950117   2.560867   2.503953
    17  H    2.145664   1.094583   2.144067   2.754837   3.303506
    18  H    2.766560   2.153891   1.101144   2.137218   2.700817
    19  H    3.219495   2.730677   2.149006   1.102075   2.147360
    20  H    2.651461   3.247929   2.702738   2.149682   1.099315
    21  H    3.921530   4.394451   4.130253   2.767309   2.144138
    22  H    3.882064   4.814322   4.605667   3.464797   2.136504
    23  H    1.947937   3.190830   3.838302   4.242131   3.328245
    24  H    2.481340   1.931415   2.709024   4.036623   4.233409
    25  Na   6.970254   7.515935   6.771743   5.346959   4.700038
                    6          7          8          9         10
     6  C    0.000000
     7  O    4.187292   0.000000
     8  O    5.606343   2.727736   0.000000
     9  O    4.886979   4.223737   2.906876   0.000000
    10  O    2.936696   4.516187   4.841354   2.793402   0.000000
    11  O    2.345896   2.330709   3.657716   4.104957   3.632147
    12  O    1.419070   5.114785   6.486854   5.244774   2.694128
    13  H    4.334765   2.063419   2.768974   4.578342   5.174296
    14  H    5.701528   4.344675   2.580684   0.963863   3.656686
    15  H    3.875978   4.954712   4.808199   2.314610   0.965690
    16  H    1.959706   5.197102   6.219636   4.599271   1.894861
    17  H    4.454134   3.288085   2.020841   2.644626   4.068387
    18  H    4.131312   2.613938   2.671278   2.068419   2.656692
    19  H    2.747412   4.166771   4.042979   2.609735   2.069391
    20  H    2.157597   2.532986   4.299335   3.991994   2.646732
    21  H    1.099312   4.753595   5.795560   5.011180   3.314634
    22  H    1.091553   4.260031   6.090737   5.778356   3.925663
    23  H    4.452092   0.962885   3.521768   5.173226   5.252972
    24  H    5.725898   2.248517   0.966274   3.396586   5.038521
    25  Na   3.355699   7.262940   8.832039   7.549042   4.882898
                   11         12         13         14         15
    11  O    0.000000
    12  O    3.620552   0.000000
    13  H    1.993835   5.604232   0.000000
    14  H    4.659741   6.100858   4.778958   0.000000
    15  H    4.310454   3.623465   5.623646   3.135306   0.000000
    16  H    3.828435   0.966210   5.748331   5.479483   2.760688
    17  H    2.709443   5.458509   2.433306   2.922845   4.178444
    18  H    3.210393   4.525018   3.799267   2.308820   2.697235
    19  H    2.629231   3.358990   3.948164   3.503526   2.440813
    20  H    2.078070   2.677137   3.628837   4.569749   3.415015
    21  H    2.574768   2.095679   4.435163   5.870000   4.158590
    22  H    2.566570   2.023970   4.413523   6.526650   4.875883
    23  H    2.649206   5.438330   2.230945   5.303449   5.780872
    24  H    3.787389   6.557831   2.890426   3.035651   5.062008
    25  Na   5.677838   2.380512   7.647821   8.432249   5.715597
                   16         17         18         19         20
    16  H    0.000000
    17  H    5.213321   0.000000
    18  H    4.113517   3.052820   0.000000
    19  H    2.938699   2.534224   3.051157   0.000000
    20  H    2.776851   3.944389   2.462866   3.053815   0.000000
    21  H    2.462504   4.309702   4.665240   2.523254   3.060923
    22  H    2.821396   5.071789   4.766538   3.728834   2.477955
    23  H    5.674354   4.021054   3.532486   4.877426   2.957301
    24  H    6.345224   2.805758   2.565770   4.544523   4.128954
    25  Na   2.988631   7.694154   6.880531   5.514599   4.876172
                   21         22         23         24         25
    21  H    0.000000
    22  H    1.776726   0.000000
    23  H    5.047221   4.284123   0.000000
    24  H    6.080041   6.102285   2.997970   0.000000
    25  Na   3.650101   3.360731   7.409040   8.888148   0.000000
 Symmetry turned off by external request.
 Stoichiometry    C6H12NaO6(1+)
 Framework group  C1[X(C6H12NaO6)]
 Deg. of freedom    69
 Full point group                 C1      NOp   1
 Rotational constants (GHZ):      1.3979578      0.3727427      0.3124644
 Standard basis: 6-31+G(2df,p) (6D, 7F)
 Integral buffers will be    131072 words long.
 Raffenetti 2 integral format.
 Two-electron integral symmetry is turned off.
   480 basis functions,   732 primitive gaussians,   519 cartesian basis functions
    53 alpha electrons       53 beta electrons
       nuclear repulsion energy       947.9167909941 Hartrees.
 NAtoms=   25 NActive=   25 NUniq=   25 SFac= 1.00D+00 NAtFMM=   50 NAOKFM=F Big=F
 ------------------------------------------------------------------------------
 Polarizable Continuum Model (PCM)
 =================================
 Model                : PCM.
 Atomic radii         : UFF (Universal Force Field).
 Polarization charges : Total charges.
 Charge compensation  : None.
 Solution method      : Matrix inversion.
 Cavity type          : Scaled VdW (van der Waals Surface) (Alpha=1.100).
 Cavity algorithm     : GePol (No added spheres)
                        Default sphere list used, NSphG=   25.
                        Lebedev-Laikov grids with approx.  5.0 points / Ang**2.
                        Smoothing algorithm: Karplus/York (Gamma=1.0000).
                        Polarization charges: spherical gaussians, with
                                              point-specific exponents (IZeta= 3).
                        Self-potential: point-specific (ISelfS= 7).
                        Self-field    : sphere-specific E.n sum rule (ISelfD= 2).
 1st derivatives      : Analytical E(r).r(x)/FMM algorithm (CHGder, D1EAlg=3).
                        Cavity 1st derivative terms included.
 Solvent              : Ethanol, Eps=  24.852000 Eps(inf)=   1.852593
 ------------------------------------------------------------------------------
 One-electron integrals computed using PRISM.
 NBasis=   480 RedAO= T  NBF=   480
 NBsUse=   480 1.00D-06 NBFU=   480
 Initial guess read from the read-write file.
 B after Tr=     0.000000    0.000000    0.000000
         Rot=    1.000000    0.000000    0.000000    0.000000 Ang=   0.00 deg.
 Harris functional with IExCor= 1009 diagonalized for initial guess.
 ExpMin= 7.60D-03 ExpMax= 9.99D+03 ExpMxC= 1.50D+03 IAcc=3 IRadAn=         0 AccDes= 0.00D+00
 HarFok:  IExCor= 1009 AccDes= 0.00D+00 IRadAn=         0 IDoV= 1
 ScaDFX=  1.000000  1.000000  1.000000  1.000000
 FoFCou: FMM=F IPFlag=           0 FMFlag=      100000 FMFlg1=           0
         NFxFlg=           0 DoJE=T BraDBF=F KetDBF=T FulRan=T
         Omega=  0.000000  0.000000  1.000000  0.000000  0.000000 ICntrl=     500 IOpCl=  0
         NMat0=    1 NMatS0=    1 NMatT0=    0 NMatD0=    1 NMtDS0=    0 NMtDT0=    0
         I1Cent=           4 NGrid=           0.
 Symmetry not used in FoFCou.
 Requested convergence on RMS density matrix=1.00D-06 within 128 cycles.
 Requested convergence on MAX density matrix=1.00D-04.
 Requested convergence on             energy=1.00D-04.
 No special actions if energy rises.
 Error on total polarization charges =  0.01029
 SCF Done:  E(RM062X) =  -849.229683164     A.U. after    6 cycles
             Convg  =    0.8498D-06             -V/T =  2.0058
 QCSCF skips out because SCF is already converged.
 D1PCM: PCM CHGder 1st derivatives, ID1Alg=3 FixD1E=F DoIter=F DoCFld=F I1PDM=0.
 Calling FoFJK, ICntrl=      2127 FMM=F ISym2X=0 I1Cent= 0 IOpClX= 0 NMat=1 NMatS=1 NMatT=0.
 -------------------------------------------------------------------
 Center     Atomic                   Forces (Hartrees/Bohr)
 Number     Number              X              Y              Z
 -------------------------------------------------------------------
      1        6          -0.000129329    0.000648237    0.000253838
      2        6          -0.000314933   -0.000388939    0.000209231
      3        6           0.002764971   -0.001082436   -0.000591256
      4        6          -0.001323254    0.000299105    0.001167854
      5        6          -0.000270060    0.003627266    0.000163045
      6        6           0.000646173   -0.002165211   -0.001876844
      7        8          -0.000134279    0.000115949   -0.000189708
      8        8          -0.000119076   -0.000441397    0.000052774
      9        8          -0.000234861    0.000798244   -0.000217572
     10        8           0.000158489    0.004184713   -0.001068007
     11        8          -0.000287319   -0.001371152   -0.000954505
     12        8          -0.002950332   -0.006071115    0.001784748
     13        1           0.000083314    0.000339390    0.000024764
     14        1           0.000156853    0.000020566    0.000148625
     15        1           0.000521403   -0.001319040    0.000805579
     16        1           0.000557967    0.000880617    0.000191747
     17        1           0.000117533    0.000071944    0.000007968
     18        1           0.000037191    0.000237669    0.000023346
     19        1           0.000211695    0.000801448   -0.000315581
     20        1          -0.000080651   -0.001316329    0.000522105
     21        1           0.001563646   -0.000858169   -0.001008555
     22        1          -0.001127367   -0.000062631    0.000850217
     23        1          -0.000015162   -0.000034079    0.000010425
     24        1           0.000001672   -0.000010121    0.000011071
     25       11           0.000165712    0.003095471   -0.000005310
 -------------------------------------------------------------------
 Cartesian Forces:  Max     0.006071115 RMS     0.001311524

 GradGradGradGradGradGradGradGradGradGradGradGradGradGradGradGradGradGrad
 Berny optimization.
 Using GEDIIS/GDIIS optimizer.
 Internal  Forces:  Max     0.005384809 RMS     0.001034903
 Search for a local minimum.
 Step number   2 out of a maximum of  148
 All quantities printed in internal units (Hartrees-Bohrs-Radians)
 Mixed Optimization -- RFO/linear search
 Update second derivatives using D2CorX and points    1    2
 DE= -2.68D-03 DEPred=-3.07D-03 R= 8.72D-01
 SS=  1.41D+00  RLast= 3.07D-01 DXNew= 5.0454D-01 9.2226D-01
 Trust test= 8.72D-01 RLast= 3.07D-01 DXMaxT set to 5.05D-01
 ITU=  1  0
 Use linear search instead of GDIIS.
     Eigenvalues ---    0.00651   0.00663   0.00742   0.01408   0.01445
     Eigenvalues ---    0.01480   0.01525   0.01584   0.01697   0.02520
     Eigenvalues ---    0.02988   0.03322   0.04393   0.04628   0.04674
     Eigenvalues ---    0.04910   0.05020   0.05294   0.05463   0.05841
     Eigenvalues ---    0.05927   0.06212   0.06540   0.06870   0.07109
     Eigenvalues ---    0.07348   0.07938   0.09144   0.09486   0.10580
     Eigenvalues ---    0.11437   0.12859   0.14615   0.15870   0.16000
     Eigenvalues ---    0.16000   0.16000   0.16005   0.16503   0.17197
     Eigenvalues ---    0.18371   0.19615   0.20278   0.22525   0.23995
     Eigenvalues ---    0.27950   0.29151   0.29351   0.29651   0.31744
     Eigenvalues ---    0.33520   0.33555   0.33677   0.34286   0.34318
     Eigenvalues ---    0.34394   0.34732   0.40111   0.42735   0.43065
     Eigenvalues ---    0.43289   0.43600   0.44313   0.45682   0.54035
     Eigenvalues ---    0.54137   0.54640   0.54736   0.54841
 RFO step:  Lambda=-1.33691841D-03 EMin= 6.51333243D-03
 Quartic linear search produced a step of -0.06074.
 Iteration  1 RMS(Cart)=  0.05044848 RMS(Int)=  0.00139424
 Iteration  2 RMS(Cart)=  0.00201604 RMS(Int)=  0.00004366
 Iteration  3 RMS(Cart)=  0.00000281 RMS(Int)=  0.00004363
 Iteration  4 RMS(Cart)=  0.00000000 RMS(Int)=  0.00004363
 Variable       Old X    -DE/DX   Delta X   Delta X   Delta X     New X
                                 (Linear)    (Quad)   (Total)
    R1        2.89345  -0.00004  -0.00023  -0.00017  -0.00039   2.89306
    R2        2.64553   0.00022  -0.00004   0.00061   0.00057   2.64610
    R3        2.65472   0.00085   0.00002   0.00109   0.00111   2.65583
    R4        2.06667   0.00007   0.00000   0.00018   0.00018   2.06685
    R5        2.88041   0.00040  -0.00008   0.00042   0.00035   2.88076
    R6        2.66173  -0.00045  -0.00004  -0.00076  -0.00080   2.66093
    R7        2.06846   0.00004   0.00000   0.00010   0.00010   2.06856
    R8        2.86789  -0.00061   0.00025  -0.00198  -0.00173   2.86616
    R9        2.66905   0.00025   0.00002   0.00044   0.00046   2.66951
   R10        2.08086  -0.00003   0.00000  -0.00009  -0.00009   2.08077
   R11        2.88423   0.00319   0.00207   0.00250   0.00457   2.88880
   R12        2.67699  -0.00079   0.00017  -0.00243  -0.00226   2.67473
   R13        2.08262  -0.00033  -0.00006  -0.00066  -0.00072   2.08190
   R14        2.86546   0.00495  -0.00129   0.01992   0.01863   2.88410
   R15        2.68549  -0.00056   0.00040  -0.00215  -0.00176   2.68373
   R16        2.07740  -0.00058   0.00008  -0.00194  -0.00186   2.07554
   R17        2.68165  -0.00116  -0.00034  -0.00101  -0.00135   2.68030
   R18        2.07740  -0.00082  -0.00059   0.00035  -0.00024   2.07716
   R19        2.06274   0.00085   0.00032   0.00090   0.00123   2.06396
   R20        1.81959   0.00001   0.00001  -0.00001   0.00000   1.81959
   R21        1.82599  -0.00003   0.00000  -0.00007  -0.00007   1.82592
   R22        1.82144  -0.00003   0.00001  -0.00008  -0.00007   1.82137
   R23        1.82489  -0.00039   0.00012  -0.00118  -0.00106   1.82383
   R24        1.82587   0.00091  -0.00037   0.00314   0.00276   1.82864
   R25        4.49852  -0.00310   0.00224  -0.05429  -0.05205   4.44646
    A1        1.85798   0.00003   0.00012   0.00052   0.00063   1.85861
    A2        1.93554   0.00013  -0.00023   0.00057   0.00034   1.93588
    A3        1.93534  -0.00024  -0.00003  -0.00247  -0.00250   1.93284
    A4        1.96173   0.00002   0.00001   0.00116   0.00118   1.96291
    A5        1.93887  -0.00001   0.00004  -0.00069  -0.00065   1.93822
    A6        1.83615   0.00007   0.00008   0.00081   0.00089   1.83705
    A7        1.91364   0.00091  -0.00015   0.00274   0.00259   1.91623
    A8        1.94871  -0.00041  -0.00004  -0.00181  -0.00185   1.94686
    A9        1.89298  -0.00020   0.00015   0.00038   0.00053   1.89351
   A10        1.94022  -0.00027  -0.00007  -0.00022  -0.00029   1.93993
   A11        1.89899  -0.00024   0.00010  -0.00049  -0.00039   1.89860
   A12        1.86757   0.00018   0.00003  -0.00066  -0.00064   1.86694
   A13        1.92160  -0.00124   0.00047  -0.00565  -0.00519   1.91641
   A14        1.95417  -0.00031  -0.00013  -0.00187  -0.00199   1.95218
   A15        1.90573   0.00049  -0.00012  -0.00003  -0.00015   1.90558
   A16        1.86787   0.00110  -0.00001   0.00459   0.00457   1.87244
   A17        1.89100   0.00025  -0.00008   0.00293   0.00284   1.89385
   A18        1.92229  -0.00028  -0.00012   0.00022   0.00008   1.92238
   A19        1.89602   0.00133   0.00054   0.00850   0.00903   1.90505
   A20        1.94516  -0.00203  -0.00202  -0.00581  -0.00784   1.93732
[...]
 .00001155,0.00001020,0.00021712,0.00054232,0.00049901,0.00018415,-0.00
 004087,0.00000537,0.00000441,0.00001834,-0.00002251,-0.00000793,0.0000
 0356,-0.00000387,-0.00106675,0.06351276,0.00108022,0.00059391,-0.00545
 992,-0.04087739,-0.00849534,-0.30698284,-0.00270122,-0.00320315,-0.017
 08679,-0.00014295,0.00110814,-0.00055680,-0.00006109,-0.00008811,-0.00
 003750,-0.00005661,0.00001633,-0.00001883,-0.00103215,-0.00018631,0.00
 086688,-0.00369461,0.00725269,-0.00998367,-0.00060610,0.00109155,0.002
 37058,0.00019959,-0.00026832,0.00046695,0.00026757,-0.00060060,0.00091
 542,0.00000135,-0.00002146,0.00000984,-0.00020183,-0.00005986,0.000553
 89,0.00006137,-0.00000970,-0.00022209,-0.00004592,0.00003326,-0.000080
 67,0.00001134,0.00002579,-0.00000456,0.04396428,0.00333642,0.33369430,
 0.00117960,-0.00025410,0.00094475,0.00234000,-0.00094544,0.02635815,-0
 .04765152,0.00295519,-0.01655630,0.00022820,0.00144112,-0.00125582,0.0
 0023823,-0.00011303,0.00099191,0.00003660,0.00003814,0.00006976,-0.000
 63859,-0.00000864,-0.00087230,0.00161585,-0.00197207,-0.00164298,-0.01
 862056,-0.00742652,-0.03673614,0.00035560,-0.00059495,-0.00057935,-0.0
 0048089,-0.00016145,-0.00024864,-0.00000082,-0.00001912,-0.00001795,0.
 00005975,0.00001149,-0.00017771,0.00055159,0.00154909,0.00005323,-0.00
 013782,-0.00016974,-0.00020060,0.00001502,0.00002484,-0.00000228,-0.00
 342633,0.00242755,0.00206369,0.06430690,-0.00024921,-0.00039950,0.0000
 3515,0.00171340,0.00058856,-0.01695415,0.00388226,-0.05226464,0.014432
 30,0.00139498,-0.00454533,0.03338762,0.00145395,0.00156257,0.00111145,
 -0.00004345,-0.00012723,-0.00004113,0.00004250,0.00009087,0.00023706,-
 0.00166618,0.00221739,0.00033584,-0.01106284,0.00000820,-0.01772893,-0
 .00128603,0.00344454,-0.00155590,-0.00033569,-0.00000360,-0.00013699,0
 .00003950,0.00000171,-0.00003412,0.00011305,0.00010831,0.00008616,0.00
 021790,0.00081369,-0.00077709,0.00027909,-0.00017436,0.00013584,-0.000
 05460,-0.00001448,0.00006243,0.00219499,-0.00097688,-0.00135410,0.0031
 1436,0.05578805,-0.00018664,-0.00061347,-0.00190715,0.00012887,0.00348
 659,-0.01611173,-0.01869473,0.01429547,-0.29705459,0.00094334,0.000690
 35,-0.01144534,-0.00055760,-0.00047845,-0.00001304,0.00021134,0.000048
 60,0.00037261,-0.00154486,-0.00004797,0.00053018,-0.00049665,0.0000830
 6,0.00276939,-0.01025520,-0.00516230,-0.00516161,-0.00043535,-0.000653
 23,0.00200004,0.00026410,-0.00002510,0.00015394,-0.00000937,0.00002220
 ,-0.00000074,0.00023707,0.00009693,0.00019171,-0.00063768,0.00049110,0
 .00031118,-0.00001110,0.00002189,-0.00016239,-0.00001074,-0.00002850,-
 0.00001976,0.00187428,-0.00083502,-0.00026657,0.02841280,-0.01230652,0
 .32537156,-0.00027232,0.00000956,-0.00028444,-0.00003541,0.00033864,-0
 .00053583,0.00115261,-0.00186378,-0.00094529,-0.05618217,0.00035370,-0
 .04527077,-0.00661487,0.00016939,-0.02900932,0.00117061,0.00176027,-0.
 00074500,0.00001616,0.00019341,0.00021904,0.00008057,-0.00016725,-0.00
 001905,0.00075758,0.00059379,0.00078973,-0.00500051,0.00813394,0.03527
 401,0.00278076,-0.00029578,0.00091691,0.00039664,-0.00008773,0.0001228
 6,-0.00002707,0.00005227,-0.00000358,0.00001600,0.00005591,-0.00000952
 ,0.00141345,0.00008084,0.00048721,-0.00047555,-0.00052439,0.00007111,-
 0.00006225,0.00035473,0.00002361,0.00037654,0.00037406,0.00009468,0.06
 491732,-0.00005488,-0.00050394,0.00014620,-0.00059737,0.00108111,0.001
 55109,0.00638233,-0.00449302,0.03302732,0.00103669,-0.05179502,0.01877
 082,-0.00480635,0.00008023,-0.01587615,0.00040180,0.00094764,-0.001861
 79,0.00006265,0.00015009,0.00000299,0.00008404,-0.00039379,-0.00068156
 ,0.00075607,0.00306882,-0.00145345,0.00542587,-0.00149823,-0.02356517,
 0.00115867,0.00041752,0.00109469,-0.00021112,-0.00024218,0.00035174,0.
 00008021,0.00009279,-0.00000406,0.00026113,0.00034262,-0.00023447,-0.0
 0087255,-0.00020614,0.00057403,0.00021923,0.00041599,-0.00024507,0.000
 34361,-0.00039766,-0.00047725,-0.00009494,-0.00554096,0.00143515,-0.00
 694132,0.05939656,-0.00020467,-0.00009943,-0.00018824,0.00076799,-0.00
 041522,-0.00053604,-0.00452715,0.00122125,-0.01183740,-0.04252876,0.01
 778858,-0.28860717,-0.00163642,0.00037622,-0.00890624,0.00071651,0.000
 61634,0.00073023,-0.00009490,0.00006348,0.00005520,-0.00009754,0.00035
 012,0.00052622,0.00055828,-0.00070936,0.00119584,0.01010270,-0.0075101
 5,-0.01682721,-0.00003105,0.00077382,0.00161084,-0.00026892,-0.0002625
 9,0.00014655,-0.00005641,-0.00000261,-0.00004086,0.00000269,-0.0001619
 7,0.00028272,-0.00051762,-0.00086093,0.00009144,0.00030006,0.00061738,
 -0.00027024,-0.00031775,0.00017329,0.00055161,-0.00005862,0.00170004,0
 .00023434,0.03849899,-0.01237488,0.32086720,0.00134862,-0.00319932,0.0
 0183791,-0.00064259,0.00015799,-0.00008143,0.00065938,0.00132210,-0.00
 092154,-0.00546602,-0.00080285,-0.02993599,-0.05761802,-0.00108284,-0.
 04677538,0.00117125,-0.00093581,0.00301076,-0.00100669,0.00069145,-0.0
 0150271,0.00031896,0.00010342,-0.00008567,-0.00006521,-0.00022858,0.00
 041633,0.00259732,0.00027481,0.00083859,-0.00333970,0.00779897,0.03431
 078,-0.00004252,0.00031938,-0.00057130,-0.00006922,0.00011585,-0.00022
 052,-0.00001772,-0.00001169,0.00012329,0.00038513,-0.00007467,0.000213
 58,-0.00014110,0.00002876,-0.00026661,-0.00004511,0.00002374,0.0000699
 4,-0.00015717,-0.00053991,0.00047268,-0.00456237,-0.00245526,-0.000768
 58,0.06600092,-0.00079307,0.00197081,-0.00301621,0.00019304,-0.0002412
 4,-0.00003646,-0.00006346,0.00083128,-0.00145137,-0.00472651,0.0004175
 5,-0.01577749,-0.00184026,-0.05106792,0.01079616,0.00533959,-0.0026106
 9,0.03227939,0.00066025,-0.00060600,0.00117964,-0.00006553,-0.00016046
 ,0.00014505,0.00010371,-0.00013087,0.00040657,0.00079804,0.00035968,0.
 00088368,0.00554083,-0.00335235,-0.02140423,-0.00115136,0.00292960,-0.
 00138362,0.00002311,-0.00008191,0.00029168,0.00000292,-0.00002516,0.00
 004023,0.00014007,-0.00003018,0.00016257,0.00040666,-0.00013675,0.0001
 5717,0.00003307,0.00007215,0.00009402,-0.00030500,-0.00029569,0.000404
 42,-0.00227790,-0.00102597,-0.00058173,-0.00185703,0.05748645,-0.00047
 540,0.00388496,-0.00298756,0.00025272,0.00000506,0.00026836,0.00032069
 ,0.00057517,0.00020855,-0.00185964,0.00047395,-0.00888380,-0.04270067,
 0.00665386,-0.29508857,-0.00193865,0.00080561,-0.01153941,-0.00118500,
 0.00118741,0.00224825,-0.00012746,-0.00035060,0.00008934,0.00004115,0.
 00014054,0.00027081,-0.00034928,0.00056095,0.00105510,0.00965785,-0.00
 907341,-0.01630902,-0.00042951,-0.00083223,0.00217748,0.00004180,-0.00
 025511,0.00007259,0.00000295,-0.00003751,-0.00001429,-0.00004879,0.000
 08419,0.00027431,-0.00032743,0.00028893,-0.00031191,-0.00001543,0.0000
 6961,0.00006402,0.00001406,-0.00045741,0.00022416,-0.00079374,-0.00072
 972,0.00038710,0.03912026,-0.00438747,0.32723844,0.00006644,-0.0001683
 8,0.00002899,0.00002580,-0.00003764,-0.00003557,0.00004677,-0.00013427
 ,0.00011062,0.00021920,0.00022978,0.00138554,0.00144640,-0.00243855,0.
 00246609,-0.07131116,-0.00048973,-0.06904670,-0.00005719,0.00006321,-0
 .00003604,-0.00001965,0.00005883,-0.00000189,0.00003718,0.00011757,-0.
 00003011,0.00009593,-0.00003759,-0.00033711,0.00014094,0.00002820,-0.0
 0010394,0.00226532,0.00739643,0.02965643,-0.00000257,0.00000044,0.0000
 0355,0.00001303,0.00000251,0.00000213,-0.00004180,-0.00004198,-0.00003
 661,0.00117404,-0.00006167,0.00078548,0.00000117,0.00000067,0.00000083
 ,-0.00003552,-0.00004512,-0.00005326,0.00006788,-0.00011432,0.00002984
 ,0.00049904,-0.00005002,0.00070047,0.07071871,-0.00009838,0.00012135,0
 .00013763,0.00002950,0.00007616,0.00003046,0.00023228,-0.00001492,-0.0
 0002312,0.00167760,0.00203068,0.00130889,0.00712734,-0.00422114,0.0326
 9829,0.00040787,-0.05006170,0.01388849,0.00027449,-0.00034822,-0.00025
 236,-0.00003773,-0.00002474,-0.00000899,-0.00010812,-0.00002271,-0.000
 11492,-0.00016952,0.00024718,-0.00022309,-0.00118925,0.00206876,-0.000
 56549,0.00383850,-0.00453314,-0.02896677,0.00002262,-0.00005653,0.0000
 0067,0.00000706,0.00001119,0.00000737,-0.00009749,0.00008623,0.0000438
 8,-0.00128454,-0.00064616,0.00042185,0.00000065,-0.00001840,-0.0000215
 7,-0.00003825,0.00007244,-0.00018361,-0.00052281,-0.00025839,-0.000605
 29,-0.00028205,-0.00548337,0.00129826,-0.00595782,0.05842991,-0.000065
 08,0.00002206,0.00023749,-0.00003645,-0.00002979,-0.00007085,-0.000077
 39,-0.00013802,0.00047849,-0.00049655,-0.00113151,0.00069104,-0.003934
 31,0.00086896,-0.01327558,-0.06489522,0.01350762,-0.28710527,-0.000027
 38,0.00002241,0.00008136,0.00003069,0.00009347,-0.00000576,0.00007880,
 0.00016166,-0.00000030,0.00029583,0.00039102,0.00002045,-0.00053754,0.
 00065815,0.00090372,0.00852197,-0.01013009,-0.01864312,-0.00002611,0.0
 0011288,-0.00001792,0.00000847,-0.00000044,0.00000123,-0.00004086,0.00
 007417,0.00000668,-0.00115238,-0.00098721,-0.00021603,0.00000033,0.000
 01986,0.00001254,-0.00002936,-0.00019913,0.00003231,0.00082467,0.00050
 849,0.00021695,0.00042581,0.00193246,0.00012706,0.06252505,-0.00775566
 ,0.31956560,0.00037247,0.00001704,0.00008371,-0.00012101,0.00016575,0.
 00001097,-0.00005291,0.00025838,-0.00014091,0.00078393,0.00011180,0.00
 078546,-0.00238870,-0.00109134,-0.00091687,-0.27663353,-0.08848639,-0.
 03698881,0.00003982,-0.00004913,0.00001487,0.00007754,-0.00006567,0.00
 000542,-0.00004738,-0.00017341,0.00000644,-0.00032063,-0.00032446,-0.0
 0002358,0.00112494,0.00053380,-0.00035304,-0.02569943,-0.00190936,0.00
 483248,0.00001553,-0.00004745,0.00001679,-0.00001650,0.00002759,-0.000
 01532,0.00005445,-0.00008358,-0.00000752,0.00017177,0.00416598,0.00080
 801,0.00001025,-0.00000162,0.00000363,0.00000416,-0.00002018,0.0000151
 5,0.00008433,0.00010199,0.00004304,0.00034152,-0.00018813,0.00015924,-
 0.00535005,-0.00381573,-0.00144002,0.30781760,0.00009244,0.00005135,0.
 00010613,-0.00035883,0.00040305,0.00004835,-0.00165607,0.00077445,-0.0
 0075164,0.00257249,-0.00624591,0.00265994,-0.02954306,-0.01233946,-0.0
 0603667,-0.09605942,-0.08405506,-0.01225233,0.00007685,0.00004888,-0.0
 0001194,0.00021013,-0.00017387,0.00000587,-0.00033979,-0.00125178,0.00
 017234,0.00018342,0.00079893,0.00013536,-0.00027324,0.00267007,0.00014
 801,0.02862746,0.00781504,-0.00151545,0.00003856,-0.00000492,0.0000219
 1,-0.00019638,-0.00002715,-0.00006869,0.00009235,0.00012126,0.00001090
 ,0.00269669,-0.00320683,-0.00166078,0.00001388,-0.00001353,-0.00002271
 ,0.00002573,-0.00005244,0.00008522,0.00024750,0.00010701,0.00004451,0.
 00039269,0.00135257,-0.00000705,0.00203051,0.00206197,0.00134915,0.091
 06450,0.09111195,0.00004579,0.00000934,-0.00021584,0.00007270,-0.00006
 489,-0.00000960,0.00043239,-0.00007905,0.00063162,-0.00080748,0.001707
 85,-0.00043771,0.01221650,0.00713677,0.00147692,-0.04512638,-0.0152022
 0,-0.05773867,-0.00001693,0.00000702,-0.00000199,-0.00004579,0.0000209
 3,-0.00000073,0.00008232,0.00036635,-0.00006693,-0.00004434,0.00009758
 ,-0.00012308,-0.00010568,-0.00165432,0.00008437,0.02540101,0.00452735,
 0.00082385,-0.00000931,-0.00003839,0.00000496,0.00006170,0.00002154,0.
 00001043,-0.00005325,0.00006859,-0.00000645,0.00235329,-0.00301340,-0.
 00118307,-0.00000519,0.00000968,0.00000575,0.00000149,-0.00009182,0.00
 000134,0.00024718,0.00021140,0.00030620,0.00025238,-0.00072360,0.00049
 644,-0.02807373,-0.01096092,-0.00304044,0.03305949,0.01755742,0.058900
 79,-0.00656010,-0.00038320,-0.00038954,0.00174122,-0.00033337,-0.00096
 257,0.00006877,0.00018108,0.00049701,-0.00028361,-0.00006441,-0.000073
 08,-0.00109723,0.00051987,0.00022362,0.00007113,0.00025386,-0.00009544
 ,-0.48936333,-0.11699531,-0.09553634,0.00050295,0.00065894,0.00029994,
 0.00032952,0.00003615,-0.00016688,0.00025609,-0.00004616,-0.00003065,0
 .00117709,-0.00157671,0.00192975,0.00014396,-0.00030828,-0.00002811,0.
 00216550,0.00016306,0.00199245,-0.00005762,-0.00000958,0.00004383,-0.0
 0001799,-0.00001248,-0.00001028,-0.00006093,0.00004409,-0.00000656,0.0
 0007272,-0.00003862,0.00018971,0.00008604,-0.00006525,-0.00021853,0.00
 002771,0.00006411,0.00002419,-0.00013253,0.00011978,-0.00005392,0.0000
 0870,-0.00003885,0.00003163,-0.00000506,0.00000541,-0.00000980,0.49136
 692,0.00598908,0.00027237,0.00258447,-0.00100472,-0.00008708,-0.000598
 58,0.00015469,0.00011059,-0.00032926,-0.00009222,0.00001951,-0.0001537
 4,0.00048956,-0.00055199,-0.00020416,0.00001778,-0.00000977,0.00008398
 ,-0.12274050,-0.03442658,-0.01807166,-0.00026507,0.00063158,-0.0012588
 2,-0.00007989,-0.00001146,0.00019656,-0.00008549,0.00000776,0.00002962
 ,-0.00015392,-0.00022411,0.00041518,-0.00005910,0.00006634,-0.00000923
 ,-0.00068275,-0.00043849,0.00107114,0.00002933,-0.00001244,-0.00001043
 ,0.00000545,0.00000699,0.00000666,0.00001815,-0.00000688,0.00000371,-0
 .00025383,-0.00003897,0.00003954,0.00004204,-0.00002758,0.00017306,-0.
 00001247,-0.00000334,0.00001849,0.00025758,-0.00010702,0.00008091,-0.0
 0000478,-0.00001643,-0.00001161,-0.00001719,-0.00002655,0.00000827,0.1
 1808790,0.03376282,-0.04594441,-0.01179978,-0.01475690,-0.00037319,0.0
 0157271,-0.00775594,0.00045222,-0.00015078,-0.00073298,-0.00018668,-0.
 00005818,-0.00011895,-0.00050211,0.00025622,0.00014762,0.00000596,0.00
 022358,0.00002315,-0.04732602,-0.00420551,-0.05025021,0.00063666,0.000
 50190,0.00089774,0.00015047,0.00011905,0.00045138,0.00023174,0.0000021
 0,-0.00001593,0.00213810,0.00036725,0.00128802,0.00009831,-0.00020061,
 -0.00004520,0.00035774,-0.00048640,0.00130374,-0.00002192,-0.00004230,
 -0.00002403,-0.00001247,-0.00000660,-0.00001316,-0.00003891,0.00003795
 ,0.00000014,-0.00145739,-0.00074646,-0.00006287,-0.00023521,0.00007237
 ,0.00045790,0.00002577,-0.00006166,0.00005453,0.00002427,-0.00001117,-
 0.00001472,0.00000107,-0.00004145,0.00002744,-0.00000624,-0.00001165,0
 .00000519,0.09215753,0.01561658,0.06936908,0.00172367,-0.00301998,0.00
 393611,-0.00131046,0.00084399,-0.00247344,-0.00095054,-0.00058179,-0.0
 0153033,0.00025260,0.00059428,0.00032855,0.00057511,-0.00007193,-0.000
 12913,-0.00011413,-0.00003982,-0.00000255,-0.00051542,0.00107253,-0.00
 056528,-0.08434437,0.00507969,-0.18605264,0.00013492,0.00027823,0.0004
 5088,0.00021274,-0.00045001,-0.00002495,-0.00058277,0.00093763,-0.0007
 0531,-0.00006160,0.00003320,0.00000947,-0.00022961,-0.00001480,-0.0000
 9839,-0.00045806,0.00002188,-0.00052073,-0.00009356,0.00006862,-0.0000
 2907,0.00004563,0.00007400,0.00000409,0.00037062,-0.00132589,0.0014836
 1,-0.00024543,0.00055026,0.00045774,-0.00002410,-0.00023139,0.00006731
 ,-0.00001427,-0.00003228,-0.00000759,0.00000425,0.00001668,-0.00000771
 ,-0.00001384,-0.00004394,0.00000529,-0.00044099,0.00035131,-0.00017634
 ,0.08607529,-0.00067681,-0.00294007,0.00544277,0.01752338,-0.00796810,
 0.04415324,0.00073463,0.00043339,0.00147403,0.00013058,-0.00043392,-0.
 00022742,0.00050917,-0.00026342,-0.00025373,0.00000385,-0.00018297,0.0
 0002872,0.00149459,0.00086259,-0.00086027,-0.01487888,-0.04356290,-0.0
 3121255,-0.00076428,-0.00014968,-0.00034795,-0.00028105,0.00009110,-0.
 00005063,-0.00018553,0.00197650,-0.00087445,-0.00009928,0.00020986,0.0
 0002813,-0.00004557,0.00004090,-0.00032590,0.00025379,0.00007454,0.000
 01141,0.00004266,-0.00003708,0.00003231,0.00003140,-0.00005519,0.00000
 063,0.00018208,-0.00601728,0.00121113,0.00047278,-0.00028100,-0.000997
 42,-0.00000771,0.00026088,-0.00020267,-0.00002323,-0.00007421,-0.00001
 978,-0.00000823,0.00003319,-0.00002380,0.00000528,0.00001437,0.0000014
 2,-0.00030352,0.00112474,-0.00097330,-0.00411337,0.05687641,0.00067621
 ,0.00008732,0.00060825,-0.00421346,0.00332322,-0.01505251,-0.00035669,
 -0.00130756,0.00255909,0.00037493,0.00022642,-0.00025455,-0.00020236,0
 .00024139,0.00036534,-0.00000701,0.00010842,-0.00007680,-0.00055839,-0
 .00189999,-0.00060113,-0.18069425,0.01464115,-0.43044215,0.00041734,-0
 .00031207,-0.00040396,0.00038140,-0.00054242,-0.00012017,-0.00050514,-
 0.00143499,-0.00053634,0.00004930,-0.00015687,-0.00002156,0.00010675,0
 .00017980,-0.00021578,-0.00063191,0.00015436,0.00014683,-0.00008645,0.
 00003571,-0.00000754,0.00000290,0.00007078,0.00000481,-0.00027006,0.00
 236548,0.00125409,-0.00029571,0.00003626,-0.00050124,0.00002259,-0.000
 09995,-0.00003675,0.00002045,-0.00002404,-0.00004463,0.00000608,0.0000
 0001,0.00001188,-0.00000482,-0.00001763,0.00000144,0.00018880,0.000314
 90,-0.00024667,0.18558055,-0.01601125,0.44360247,-0.00000170,0.0000337
 9,0.00000821,0.00000206,0.00000531,0.00000385,0.00000070,0.00001652,-0
 .00000379,0.00004429,-0.00003097,0.00001950,-0.00016525,0.00010281,0.0
 0009851,0.00020582,0.00103859,0.00002095,-0.00000633,-0.00001458,-0.00
 000470,-0.00000714,-0.00000858,0.00000063,-0.00001989,-0.00001892,-0.0
 0000089,-0.00015242,-0.00007300,0.00002435,-0.00002913,0.00003964,-0.0
 0001373,-0.00659453,0.00038983,-0.00001902,-0.00000066,0.00000169,0.00
 000007,0.00000164,-0.00000085,-0.00000121,0.00002180,-0.00004201,-0.00
 000975,0.00014579,-0.00178464,-0.00020405,0.00000037,-0.00000001,-0.00
 000086,0.00000058,-0.00000184,-0.00000036,-0.00000154,0.00000110,-0.00
 000323,-0.00000193,-0.00001051,0.00000134,-0.00001283,0.00000597,0.000
 02312,-0.00024926,0.00010010,0.00006637,0.00000108,0.00000905,0.000001
 04,0.00000432,0.00000329,-0.00000106,0.00681416,0.00006002,-0.00047999
 ,0.00032333,0.00002446,-0.00010829,-0.00007384,-0.00002160,-0.00015718
 ,0.00011204,-0.00010782,-0.00020429,-0.00030136,-0.00004649,-0.0006099
 3,0.00052539,0.00297084,-0.00283893,-0.00210924,-0.00010426,0.00015816
 ,-0.00020673,-0.00000629,0.00019470,-0.00002727,0.00011964,0.00022494,
 -0.00000512,0.00050477,0.00071763,0.00002090,-0.00035293,0.00114847,0.
 00000037,-0.00137381,-0.02326232,-0.00264322,-0.00003582,0.00010829,-0
 .00001499,0.00000397,-0.00001305,0.00001679,-0.00012583,0.00014794,0.0
 0000471,-0.00126222,-0.00185424,0.00051961,-0.00000327,0.00000087,0.00
 000572,0.00000090,0.00000738,-0.00000247,-0.00001688,-0.00000261,0.000
 04332,0.00000652,0.00000971,0.00004087,-0.00033804,0.00046679,0.000684
 90,-0.00017846,0.00006658,0.00007708,0.00004147,-0.00001401,0.00002614
 ,0.00000290,-0.00003266,0.00002155,0.00023823,0.02632605,0.00001923,-0
 .00006170,0.00007391,0.00000306,-0.00001630,-0.00000145,0.00001457,-0.
 00002609,0.00003064,-0.00003413,-0.00000534,-0.00001321,0.00005819,-0.
 00004673,0.00005383,0.00029119,-0.00100860,-0.00047097,-0.00002155,0.0
 0001333,-0.00005372,-0.00000070,0.00002614,-0.00001262,0.00001173,0.00
 003036,-0.00001539,0.00007344,0.00009052,-0.00000500,-0.00003635,0.000
 12065,-0.00001621,-0.00026710,-0.00195840,-0.00205246,-0.00000232,0.00
 001219,-0.00000501,0.00000080,-0.00000029,0.00000824,-0.00001528,0.000
 00912,0.00002331,-0.00018716,-0.00005969,0.00030747,-0.00000065,-0.000
 00165,-0.00000276,-0.00000087,0.00000475,-0.00000651,-0.00000183,-0.00
 000874,-0.00000684,-0.00000729,0.00002436,-0.00000809,0.00005278,-0.00
 011257,-0.00003895,0.00005242,0.00001142,0.00007523,0.00000324,0.00000
 443,0.00001164,-0.00000015,-0.00000268,0.00000757,-0.00000528,0.002961
 53,0.00211734\\0.00000677,0.00000768,0.00000677,0.00001086,-0.00000097
 ,0.00000866,0.00000613,-0.00000399,0.00000453,-0.00000106,-0.00000626,
 -0.00000230,-0.00000492,0.00000279,-0.00000326,-0.00001234,0.00000032,
 -0.00000928,0.00000607,0.00001521,0.00000800,0.00001829,0.00000180,0.0
 0001478,0.00001133,-0.00001348,0.00000357,-0.00000562,-0.00000958,-0.0
 0000554,-0.00000048,0.00000515,0.00000043,-0.00001775,-0.00000057,-0.0
 0001460,0.00000940,0.00000936,0.00000952,0.00001390,-0.00001053,0.0000
 1184,-0.00000297,-0.00001371,-0.00000572,-0.00001540,-0.00000512,-0.00
 001360,0.00001232,-0.00000651,0.00000871,0.00000569,0.00000141,0.00000
 479,0.00000022,-0.00001188,-0.00000248,-0.00000600,0.00000810,-0.00000
 317,-0.00001144,-0.00000520,-0.00001024,-0.00001427,0.00000683,-0.0000
 1040,0.00000463,0.00002100,0.00000796,0.00001690,0.00000768,0.00001550
 ,-0.00003029,0.00000050,-0.00002448\\\@


 IF I HAVE SEEN FARTHER, IT IS BY STANDING ON THE
 SHOULDERS OF GIANTS. -- SIR ISAAC NEWTON
 Job cpu time:  0 days 19 hours 39 minutes 31.4 seconds.
 File lengths (MBytes):  RWF=    556 Int=      0 D2E=      0 Chk=     22 Scr=      1
 Normal termination of Gaussian 09 at Sun Apr 15 17:45:26 2012.
