 Entering Gaussian System, Link 0=g09
 Initial command:
 /opt/gaussian//g09/l1.exe /scratch/g09/Gau-2389.inp -scrdir=/scratch/g09/
 Entering Link 1 = /opt/gaussian//g09/l1.exe PID=      2390.
  
 Copyright (c) 1988,1990,1992,1993,1995,1998,2003,2009,2010,
            Gaussian, Inc.  All Rights Reserved.
  
 This is part of the Gaussian(R) 09 program.  It is based on
 the Gaussian(R) 03 system (copyright 2003, Gaussian, Inc.),
 the Gaussian(R) 98 system (copyright 1998, Gaussian, Inc.),
 the Gaussian(R) 94 system (copyright 1995, Gaussian, Inc.),
 the Gaussian 92(TM) system (copyright 1992, Gaussian, Inc.),
 the Gaussian 90(TM) system (copyright 1990, Gaussian, Inc.),
 the Gaussian 88(TM) system (copyright 1988, Gaussian, Inc.),
 the Gaussian 86(TM) system (copyright 1986, Carnegie Mellon
 University), and the Gaussian 82(TM) system (copyright 1983,
 Carnegie Mellon University). Gaussian is a federally registered
 trademark of Gaussian, Inc.
  
 This software contains proprietary and confidential information,
 including trade secrets, belonging to Gaussian, Inc.
  
 This software is provided under written license and may be
 used, copied, transmitted, or stored only in accord with that
 written license.
  
 The following legend is applicable only to US Government
 contracts under FAR:
  
                    RESTRICTED RIGHTS LEGEND
  
 Use, reproduction and disclosure by the US Government is
 subject to restrictions as set forth in subparagraphs (a)
 and (c) of the Commercial Computer Software - Restricted
 Rights clause in FAR 52.227-19.
  
 Gaussian, Inc.
 340 Quinnipiac St., Bldg. 40, Wallingford CT 06492
  
  
 ---------------------------------------------------------------
 Warning -- This program may not be used in any manner that
 competes with the business of Gaussian, Inc. or will provide
 assistance to any competitor of Gaussian, Inc.  The licensee
 of this program is prohibited from giving any competitor of
 Gaussian, Inc. access to this program.  By using this program,
 the user acknowledges that Gaussian, Inc. is engaged in the
 business of creating and licensing software in the field of
 computational chemistry and represents and warrants to the
 licensee that it is not a competitor of Gaussian, Inc. and that
 it will not use this program in any manner prohibited above.
 ---------------------------------------------------------------
  

 Cite this work as:
 Gaussian 09, Revision B.01,
 M. J. Frisch, G. W. Trucks, H. B. Schlegel, G. E. Scuseria, 
 M. A. Robb, J. R. Cheeseman, G. Scalmani, V. Barone, B. Mennucci, 
 G. A. Petersson, H. Nakatsuji, M. Caricato, X. Li, H. P. Hratchian, 
 A. F. Izmaylov, J. Bloino, G. Zheng, J. L. Sonnenberg, M. Hada, 
 M. Ehara, K. Toyota, R. Fukuda, J. Hasegawa, M. Ishida, T. Nakajima, 
 Y. Honda, O. Kitao, H. Nakai, T. Vreven, J. A. Montgomery, Jr., 
 J. E. Peralta, F. Ogliaro, M. Bearpark, J. J. Heyd, E. Brothers, 
 K. N. Kudin, V. N. Staroverov, T. Keith, R. Kobayashi, J. Normand, 
 K. Raghavachari, A. Rendell, J. C. Burant, S. S. Iyengar, J. Tomasi, 
 M. Cossi, N. Rega, J. M. Millam, M. Klene, J. E. Knox, J. B. Cross, 
 V. Bakken, C. Adamo, J. Jaramillo, R. Gomperts, R. E. Stratmann, 
 O. Yazyev, A. J. Austin, R. Cammi, C. Pomelli, J. W. Ochterski, 
 R. L. Martin, K. Morokuma, V. G. Zakrzewski, G. A. Voth, 
 P. Salvador, J. J. Dannenberg, S. Dapprich, A. D. Daniels, 
 O. Farkas, J. B. Foresman, J. V. Ortiz, J. Cioslowski, 
 and D. J. Fox, Gaussian, Inc., Wallingford CT, 2010.
 
 ******************************************
 Gaussian 09:  EM64L-G09RevB.01 12-Aug-2010
                13-Nov-2011 
 ******************************************
 %chk=gaussian/init2TS/init2thfTS+camAgain3.chk
 %mem=31GB
 %nproc=8
 Will use up to    8 processors via shared memory.
 Default route:  MaxDisk=210GB
 ----------------------------------------------------------------------
 # opt(TS,calcFC,noeigen) freq=noraman cam-b3lyp/6-31+g(2df,p) scf=xqc 
 nosymm scrf=(solvent=thf)
 ----------------------------------------------------------------------
 1/5=1,10=4,11=1,14=-1,18=20,26=3,38=1/1,3;
 2/9=110,12=2,15=1,17=6,18=5,40=1/2;
 3/5=1,6=6,7=114,11=2,16=1,25=1,30=1,70=2201,71=2,72=20,74=-40/1,2,3;
 4//1;
 5/5=2,8=3,13=1,38=5,53=20/2,8;
 8/6=4,10=90,11=11/1;
 11/6=1,8=1,9=11,15=111,16=1,31=1/1,2,10;
 10/6=1,7=6,13=1,31=1/2;
 6/7=2,8=2,9=2,10=2,28=1/1;
 7/10=1,18=20,25=1,30=1/1,2,3,16;
 1/5=1,10=4,11=1,14=-1,18=20/3(2);
 2/9=110,15=1/2;
 99//99;
 2/9=110,15=1/2;
 3/5=1,6=6,7=114,11=2,16=1,25=1,30=1,70=2205,71=1,72=20,74=-40/1,2,3;
 4/5=5,16=3/1;
 5/5=2,8=3,13=1,38=5,53=20/2,8;
 7/30=1/1,2,3,16;
 1/5=1,11=1,14=-1,18=20/3(-5);
 2/9=110,15=1/2;
 6/7=2,8=2,9=2,10=2,19=2,28=1/1;
 99/9=1/99;
 ----------------------------------------------------------------------
 init2thfTS+bmkAgain3 from init2thfTS+m06again.log adjsted to be like i
 nit2thfTS+m062xAgain3
 ----------------------------------------------------------------------
 Symbolic Z-matrix:
 Charge =  0 Multiplicity = 1
 8                     1.13651   1.18544  -1.53337 
 8                    -0.25081   1.50077   2.23626 
 8                     1.40263   0.0895    4.03571 
 8                     4.33687   0.75997   3.54914 
 8                     2.90621   2.11658   0.82901 
 8                     2.46496  -0.4412   -0.10615 
 6                     1.66105   1.98716   0.91263 
 6                     1.01634   1.04973   1.87495 
 6                     1.94512   0.96979   3.09341 
 6                     3.30847   0.4494    2.64479 
 6                     3.7602    1.01035   1.29268 
 6                     3.71536   0.00106   0.12769 
 8                    -3.90901   0.41623  -3.3715 
 8                    -2.36157   2.54616  -4.36413 
 8                    -0.23312   3.28579  -2.68135 
 8                    -2.20489  -0.23744  -2.02684 
 8                    -1.35695  -0.51612   0.59018 
 6                    -2.53557   0.43656  -3.21756 
 6                    -2.10404   1.89352  -3.14675 
 6                    -0.62198   1.94581  -2.86939 
 6                    -0.25577   1.11778  -1.64571 
 6                    -0.80938  -0.29979  -1.76669 
 6                    -0.67524  -1.1199   -0.50197 
 1                    -0.88758   0.93097   1.76859 
 1                     0.50573   0.38319   4.23757 
 1                     1.60436   0.43491  -1.01992 
 1                     1.07355   2.75818   0.40884 
 1                     0.99284   0.04612   1.43118 
 1                     2.07389   1.97886   3.52497 
 1                     3.2089   -0.64769   2.54345 
 1                     4.74306   1.47428   1.40394 
 1                     4.43363  -0.7898    0.4415 
 1                     4.18775   0.51207  -0.7417 
 1                    -3.30445   2.47385  -4.54827 
 1                     0.70526   3.27571  -2.4587 
 1                    -2.28442  -0.42678   0.34002 
 1                    -2.02612  -0.05937  -4.06839 
 1                    -2.65287   2.36762  -2.31253 
 1                    -0.09327   1.5148   -3.74176 
 1                    -0.74931   1.59448  -0.77249 
 1                    -0.28545  -0.82413  -2.58841 
 1                     0.37949  -1.22146  -0.22171 
 1                    -1.08036  -2.12424  -0.68724 
 1                    -4.19508  -0.46088  -3.64642 
 6                     5.46341  -0.08186   3.42673 
 1                     5.20819  -1.13619   3.5907 
 1                     5.91956   0.01629   2.43037 
 1                     6.18375   0.23829   4.18393 
 

 GradGradGradGradGradGradGradGradGradGradGradGradGradGradGradGradGradGrad
 Berny optimization.
 Initialization pass.
                           ----------------------------
                           !    Initial Parameters    !
                           ! (Angstroms and Degrees)  !
 --------------------------                            --------------------------
 ! Name  Definition              Value          Derivative Info.                !
 --------------------------------------------------------------------------------
 ! R1    R(1,21)                 1.3984         calculate D2E/DX2 analytically  !
 ! R2    R(1,26)                 1.0227         calculate D2E/DX2 analytically  !
 ! R3    R(2,8)                  1.3927         calculate D2E/DX2 analytically  !
 ! R4    R(2,24)                 0.9741         calculate D2E/DX2 analytically  !
 ! R5    R(3,9)                  1.399          calculate D2E/DX2 analytically  !
 ! R6    R(3,25)                 0.9651         calculate D2E/DX2 analytically  !
 ! R7    R(4,10)                 1.4042         calculate D2E/DX2 analytically  !
 ! R8    R(4,45)                 1.4116         calculate D2E/DX2 analytically  !
 ! R9    R(5,7)                  1.2547         calculate D2E/DX2 analytically  !
 ! R10   R(5,11)                 1.4724         calculate D2E/DX2 analytically  !
 ! R11   R(6,12)                 1.3468         calculate D2E/DX2 analytically  !
 ! R12   R(6,26)                 1.5307         calculate D2E/DX2 analytically  !
 ! R13   R(7,8)                  1.4901         calculate D2E/DX2 analytically  !
 ! R14   R(7,27)                 1.0924         calculate D2E/DX2 analytically  !
 ! R15   R(8,9)                  1.5342         calculate D2E/DX2 analytically  !
 ! R16   R(8,28)                 1.0976         calculate D2E/DX2 analytically  !
 ! R17   R(9,10)                 1.5267         calculate D2E/DX2 analytically  !
 ! R18   R(9,29)                 1.105          calculate D2E/DX2 analytically  !
 ! R19   R(10,11)                1.532          calculate D2E/DX2 analytically  !
 ! R20   R(10,30)                1.1063         calculate D2E/DX2 analytically  !
 ! R21   R(11,12)                1.542          calculate D2E/DX2 analytically  !
 ! R22   R(11,31)                1.0925         calculate D2E/DX2 analytically  !
 ! R23   R(12,32)                1.1135         calculate D2E/DX2 analytically  !
 ! R24   R(12,33)                1.1136         calculate D2E/DX2 analytically  !
 ! R25   R(13,18)                1.3822         calculate D2E/DX2 analytically  !
 ! R26   R(13,44)                0.9627         calculate D2E/DX2 analytically  !
 ! R27   R(14,19)                1.4051         calculate D2E/DX2 analytically  !
 ! R28   R(14,34)                0.9634         calculate D2E/DX2 analytically  !
 ! R29   R(15,20)                1.4079         calculate D2E/DX2 analytically  !
 ! R30   R(15,35)                0.9645         calculate D2E/DX2 analytically  !
 ! R31   R(16,18)                1.4076         calculate D2E/DX2 analytically  !
 ! R32   R(16,22)                1.4209         calculate D2E/DX2 analytically  !
 ! R33   R(17,23)                1.422          calculate D2E/DX2 analytically  !
 ! R34   R(17,24)                1.9243         calculate D2E/DX2 analytically  !
 ! R35   R(17,36)                0.9648         calculate D2E/DX2 analytically  !
 ! R36   R(18,19)                1.5212         calculate D2E/DX2 analytically  !
 ! R37   R(18,37)                1.1088         calculate D2E/DX2 analytically  !
 ! R38   R(19,20)                1.5087         calculate D2E/DX2 analytically  !
 ! R39   R(19,38)                1.1054         calculate D2E/DX2 analytically  !
 ! R40   R(20,21)                1.5222         calculate D2E/DX2 analytically  !
 ! R41   R(20,39)                1.1074         calculate D2E/DX2 analytically  !
 ! R42   R(21,22)                1.5266         calculate D2E/DX2 analytically  !
 ! R43   R(21,40)                1.1106         calculate D2E/DX2 analytically  !
 ! R44   R(22,23)                1.5133         calculate D2E/DX2 analytically  !
 ! R45   R(22,41)                1.1066         calculate D2E/DX2 analytically  !
 ! R46   R(23,42)                1.096          calculate D2E/DX2 analytically  !
 ! R47   R(23,43)                1.0987         calculate D2E/DX2 analytically  !
 ! R48   R(45,46)                1.0971         calculate D2E/DX2 analytically  !
 ! R49   R(45,47)                1.1002         calculate D2E/DX2 analytically  !
 ! R50   R(45,48)                1.093          calculate D2E/DX2 analytically  !
 ! A1    A(21,1,26)            117.4064         calculate D2E/DX2 analytically  !
 ! A2    A(8,2,24)             106.3067         calculate D2E/DX2 analytically  !
 ! A3    A(9,3,25)             108.0453         calculate D2E/DX2 analytically  !
 ! A4    A(10,4,45)            113.372          calculate D2E/DX2 analytically  !
 ! A5    A(7,5,11)             118.4968         calculate D2E/DX2 analytically  !
 ! A6    A(12,6,26)            115.9558         calculate D2E/DX2 analytically  !
 ! A7    A(5,7,8)              122.5008         calculate D2E/DX2 analytically  !
 ! A8    A(5,7,27)             115.4786         calculate D2E/DX2 analytically  !
 ! A9    A(8,7,27)             120.6067         calculate D2E/DX2 analytically  !
 ! A10   A(2,8,7)              110.9436         calculate D2E/DX2 analytically  !
 ! A11   A(2,8,9)              111.2014         calculate D2E/DX2 analytically  !
 ! A12   A(2,8,28)             112.4283         calculate D2E/DX2 analytically  !
 ! A13   A(7,8,9)              106.4847         calculate D2E/DX2 analytically  !
 ! A14   A(7,8,28)             108.8677         calculate D2E/DX2 analytically  !
 ! A15   A(9,8,28)             106.6445         calculate D2E/DX2 analytically  !
 ! A16   A(3,9,8)              109.4502         calculate D2E/DX2 analytically  !
 ! A17   A(3,9,10)             109.252          calculate D2E/DX2 analytically  !
 ! A18   A(3,9,29)             110.8994         calculate D2E/DX2 analytically  !
 ! A19   A(8,9,10)             108.9661         calculate D2E/DX2 analytically  !
 ! A20   A(8,9,29)             109.4603         calculate D2E/DX2 analytically  !
 ! A21   A(10,9,29)            108.7818         calculate D2E/DX2 analytically  !
 ! A22   A(4,10,9)             112.9152         calculate D2E/DX2 analytically  !
 ! A23   A(4,10,11)            105.7517         calculate D2E/DX2 analytically  !
 ! A24   A(4,10,30)            110.1363         calculate D2E/DX2 analytically  !
 ! A25   A(9,10,11)            113.4441         calculate D2E/DX2 analytically  !
 ! A26   A(9,10,30)            106.5336         calculate D2E/DX2 analytically  !
 ! A27   A(11,10,30)           107.9883         calculate D2E/DX2 analytically  !
 ! A28   A(5,11,10)            112.4583         calculate D2E/DX2 analytically  !
 ! A29   A(5,11,12)            103.7073         calculate D2E/DX2 analytically  !
 ! A30   A(5,11,31)            103.5802         calculate D2E/DX2 analytically  !
 ! A31   A(10,11,12)           114.7435         calculate D2E/DX2 analytically  !
 ! A32   A(10,11,31)           109.3223         calculate D2E/DX2 analytically  !
 ! A33   A(12,11,31)           112.3973         calculate D2E/DX2 analytically  !
 ! A34   A(6,12,11)            111.9079         calculate D2E/DX2 analytically  !
 ! A35   A(6,12,32)            114.4942         calculate D2E/DX2 analytically  !
 ! A36   A(6,12,33)            114.1409         calculate D2E/DX2 analytically  !
 ! A37   A(11,12,32)           103.4853         calculate D2E/DX2 analytically  !
 ! A38   A(11,12,33)           106.089          calculate D2E/DX2 analytically  !
 ! A39   A(32,12,33)           105.8015         calculate D2E/DX2 analytically  !
 ! A40   A(18,13,44)           109.9067         calculate D2E/DX2 analytically  !
 ! A41   A(19,14,34)           108.0665         calculate D2E/DX2 analytically  !
 ! A42   A(20,15,35)           106.835          calculate D2E/DX2 analytically  !
 ! A43   A(18,16,22)           113.9914         calculate D2E/DX2 analytically  !
 ! A44   A(23,17,24)           132.2751         calculate D2E/DX2 analytically  !
 ! A45   A(23,17,36)           107.5207         calculate D2E/DX2 analytically  !
 ! A46   A(24,17,36)           108.8826         calculate D2E/DX2 analytically  !
 ! A47   A(13,18,16)           108.6993         calculate D2E/DX2 analytically  !
 ! A48   A(13,18,19)           107.5271         calculate D2E/DX2 analytically  !
 ! A49   A(13,18,37)           111.3778         calculate D2E/DX2 analytically  !
 ! A50   A(16,18,19)           110.6452         calculate D2E/DX2 analytically  !
 ! A51   A(16,18,37)           109.0874         calculate D2E/DX2 analytically  !
 ! A52   A(19,18,37)           109.4981         calculate D2E/DX2 analytically  !
 ! A53   A(14,19,18)           110.6432         calculate D2E/DX2 analytically  !
 ! A54   A(14,19,20)           108.8586         calculate D2E/DX2 analytically  !
 ! A55   A(14,19,38)           111.3244         calculate D2E/DX2 analytically  !
 ! A56   A(18,19,20)           108.6887         calculate D2E/DX2 analytically  !
 ! A57   A(18,19,38)           107.7628         calculate D2E/DX2 analytically  !
 ! A58   A(20,19,38)           109.5191         calculate D2E/DX2 analytically  !
 ! A59   A(15,20,19)           109.2            calculate D2E/DX2 analytically  !
 ! A60   A(15,20,21)           110.1157         calculate D2E/DX2 analytically  !
 ! A61   A(15,20,39)           110.1077         calculate D2E/DX2 analytically  !
 ! A62   A(19,20,21)           111.4238         calculate D2E/DX2 analytically  !
 ! A63   A(19,20,39)           108.1008         calculate D2E/DX2 analytically  !
 ! A64   A(21,20,39)           107.8602         calculate D2E/DX2 analytically  !
 ! A65   A(1,21,20)            106.1274         calculate D2E/DX2 analytically  !
 ! A66   A(1,21,22)            114.3513         calculate D2E/DX2 analytically  !
 ! A67   A(1,21,40)            111.0091         calculate D2E/DX2 analytically  !
 ! A68   A(20,21,22)           110.7418         calculate D2E/DX2 analytically  !
 ! A69   A(20,21,40)           106.9587         calculate D2E/DX2 analytically  !
 ! A70   A(22,21,40)           107.4411         calculate D2E/DX2 analytically  !
 ! A71   A(16,22,21)           109.2634         calculate D2E/DX2 analytically  !
 ! A72   A(16,22,23)           105.2986         calculate D2E/DX2 analytically  !
 ! A73   A(16,22,41)           110.4767         calculate D2E/DX2 analytically  !
 ! A74   A(21,22,23)           113.8812         calculate D2E/DX2 analytically  !
 ! A75   A(21,22,41)           109.0937         calculate D2E/DX2 analytically  !
 ! A76   A(23,22,41)           108.7728         calculate D2E/DX2 analytically  !
 ! A77   A(17,23,22)           111.6708         calculate D2E/DX2 analytically  !
 ! A78   A(17,23,42)           107.7158         calculate D2E/DX2 analytically  !
 ! A79   A(17,23,43)           109.9303         calculate D2E/DX2 analytically  !
 ! A80   A(22,23,42)           110.4392         calculate D2E/DX2 analytically  !
 ! A81   A(22,23,43)           108.7699         calculate D2E/DX2 analytically  !
 ! A82   A(42,23,43)           108.2552         calculate D2E/DX2 analytically  !
 ! A83   A(2,24,17)            153.2955         calculate D2E/DX2 analytically  !
 ! A84   A(1,26,6)             167.6784         calculate D2E/DX2 analytically  !
 ! A85   A(4,45,46)            111.9934         calculate D2E/DX2 analytically  !
 ! A86   A(4,45,47)            110.8665         calculate D2E/DX2 analytically  !
 ! A87   A(4,45,48)            106.929          calculate D2E/DX2 analytically  !
 ! A88   A(46,45,47)           108.5139         calculate D2E/DX2 analytically  !
 ! A89   A(46,45,48)           109.3447         calculate D2E/DX2 analytically  !
 ! A90   A(47,45,48)           109.1468         calculate D2E/DX2 analytically  !
 ! D1    D(26,1,21,20)        -157.0001         calculate D2E/DX2 analytically  !
 ! D2    D(26,1,21,22)         -34.6198         calculate D2E/DX2 analytically  !
 ! D3    D(26,1,21,40)          87.1319         calculate D2E/DX2 analytically  !
 ! D4    D(21,1,26,6)         -133.4547         calculate D2E/DX2 analytically  !
 ! D5    D(24,2,8,7)           105.5569         calculate D2E/DX2 analytically  !
 ! D6    D(24,2,8,9)          -136.1258         calculate D2E/DX2 analytically  !
 ! D7    D(24,2,8,28)          -16.6224         calculate D2E/DX2 analytically  !
 ! D8    D(8,2,24,17)            0.182          calculate D2E/DX2 analytically  !
 ! D9    D(25,3,9,8)           -54.9019         calculate D2E/DX2 analytically  !
 ! D10   D(25,3,9,10)         -174.1395         calculate D2E/DX2 analytically  !
 ! D11   D(25,3,9,29)           65.9651         calculate D2E/DX2 analytically  !
 ! D12   D(45,4,10,9)          158.549          calculate D2E/DX2 analytically  !
 ! D13   D(45,4,10,11)         -76.838          calculate D2E/DX2 analytically  !
 ! D14   D(45,4,10,30)          39.5971         calculate D2E/DX2 analytically  !
 ! D15   D(10,4,45,46)         -59.247          calculate D2E/DX2 analytically  !
 ! D16   D(10,4,45,47)          62.1157         calculate D2E/DX2 analytically  !
 ! D17   D(10,4,45,48)        -179.0069         calculate D2E/DX2 analytically  !
 ! D18   D(11,5,7,8)            23.1689         calculate D2E/DX2 analytically  !
 ! D19   D(11,5,7,27)         -170.346          calculate D2E/DX2 analytically  !
 ! D20   D(7,5,11,10)          -45.2799         calculate D2E/DX2 analytically  !
 ! D21   D(7,5,11,12)           79.2618         calculate D2E/DX2 analytically  !
 ! D22   D(7,5,11,31)         -163.1964         calculate D2E/DX2 analytically  !
 ! D23   D(26,6,12,11)          85.1468         calculate D2E/DX2 analytically  !
 ! D24   D(26,6,12,32)        -157.503          calculate D2E/DX2 analytically  !
 ! D25   D(26,6,12,33)         -35.3551         calculate D2E/DX2 analytically  !
 ! D26   D(12,6,26,1)          -35.2598         calculate D2E/DX2 analytically  !
 ! D27   D(5,7,8,2)            151.8935         calculate D2E/DX2 analytically  !
 ! D28   D(5,7,8,9)             30.7562         calculate D2E/DX2 analytically  !
 ! D29   D(5,7,8,28)           -83.8767         calculate D2E/DX2 analytically  !
 ! D30   D(27,7,8,2)           -13.9175         calculate D2E/DX2 analytically  !
 ! D31   D(27,7,8,9)          -135.0548         calculate D2E/DX2 analytically  !
 ! D32   D(27,7,8,28)          110.3122         calculate D2E/DX2 analytically  !
 ! D33   D(2,8,9,3)             59.65           calculate D2E/DX2 analytically  !
 ! D34   D(2,8,9,10)           179.0639         calculate D2E/DX2 analytically  !
 ! D35   D(2,8,9,29)           -62.0869         calculate D2E/DX2 analytically  !
 ! D36   D(7,8,9,3)           -179.3777         calculate D2E/DX2 analytically  !
 ! D37   D(7,8,9,10)           -59.9638         calculate D2E/DX2 analytically  !
 ! D38   D(7,8,9,29)            58.8854         calculate D2E/DX2 analytically  !
 ! D39   D(28,8,9,3)           -63.2442         calculate D2E/DX2 analytically  !
 ! D40   D(28,8,9,10)           56.1697         calculate D2E/DX2 analytically  !
 ! D41   D(28,8,9,29)          175.0189         calculate D2E/DX2 analytically  !
 ! D42   D(3,9,10,4)           -80.8012         calculate D2E/DX2 analytically  !
 ! D43   D(3,9,10,11)          158.8964         calculate D2E/DX2 analytically  !
 ! D44   D(3,9,10,30)           40.2202         calculate D2E/DX2 analytically  !
 ! D45   D(8,9,10,4)           159.6617         calculate D2E/DX2 analytically  !
 ! D46   D(8,9,10,11)           39.3593         calculate D2E/DX2 analytically  !
 ! D47   D(8,9,10,30)          -79.3169         calculate D2E/DX2 analytically  !
 ! D48   D(29,9,10,4)           40.3893         calculate D2E/DX2 analytically  !
 ! D49   D(29,9,10,11)         -79.9132         calculate D2E/DX2 analytically  !
 ! D50   D(29,9,10,30)         161.4106         calculate D2E/DX2 analytically  !
 ! D51   D(4,10,11,5)         -113.7122         calculate D2E/DX2 analytically  !
 ! D52   D(4,10,11,12)         128.0694         calculate D2E/DX2 analytically  !
 ! D53   D(4,10,11,31)           0.7554         calculate D2E/DX2 analytically  !
 ! D54   D(9,10,11,5)           10.5707         calculate D2E/DX2 analytically  !
 ! D55   D(9,10,11,12)        -107.6478         calculate D2E/DX2 analytically  !
 ! D56   D(9,10,11,31)         125.0383         calculate D2E/DX2 analytically  !
 ! D57   D(30,10,11,5)         128.4058         calculate D2E/DX2 analytically  !
 ! D58   D(30,10,11,12)         10.1874         calculate D2E/DX2 analytically  !
 ! D59   D(30,10,11,31)       -117.1266         calculate D2E/DX2 analytically  !
 ! D60   D(5,11,12,6)          -61.1545         calculate D2E/DX2 analytically  !
 ! D61   D(5,11,12,32)         175.0671         calculate D2E/DX2 analytically  !
 ! D62   D(5,11,12,33)          63.9296         calculate D2E/DX2 analytically  !
 ! D63   D(10,11,12,6)          61.8954         calculate D2E/DX2 analytically  !
 ! D64   D(10,11,12,32)        -61.8829         calculate D2E/DX2 analytically  !
 ! D65   D(10,11,12,33)       -173.0204         calculate D2E/DX2 analytically  !
 ! D66   D(31,11,12,6)        -172.3731         calculate D2E/DX2 analytically  !
 ! D67   D(31,11,12,32)         63.8485         calculate D2E/DX2 analytically  !
 ! D68   D(31,11,12,33)        -47.289          calculate D2E/DX2 analytically  !
 ! D69   D(44,13,18,16)        -74.7647         calculate D2E/DX2 analytically  !
 ! D70   D(44,13,18,19)        165.4174         calculate D2E/DX2 analytically  !
 ! D71   D(44,13,18,37)         45.4495         calculate D2E/DX2 analytically  !
 ! D72   D(34,14,19,18)         58.2804         calculate D2E/DX2 analytically  !
 ! D73   D(34,14,19,20)        177.6549         calculate D2E/DX2 analytically  !
 ! D74   D(34,14,19,38)        -61.5237         calculate D2E/DX2 analytically  !
 ! D75   D(35,15,20,19)        176.9098         calculate D2E/DX2 analytically  !
 ! D76   D(35,15,20,21)         54.2637         calculate D2E/DX2 analytically  !
 ! D77   D(35,15,20,39)        -64.5463         calculate D2E/DX2 analytically  !
 ! D78   D(22,16,18,13)        179.1664         calculate D2E/DX2 analytically  !
 ! D79   D(22,16,18,19)        -62.9753         calculate D2E/DX2 analytically  !
 ! D80   D(22,16,18,37)         57.5427         calculate D2E/DX2 analytically  !
 ! D81   D(18,16,22,21)         60.3603         calculate D2E/DX2 analytically  !
 ! D82   D(18,16,22,23)       -176.9421         calculate D2E/DX2 analytically  !
 ! D83   D(18,16,22,41)        -59.6654         calculate D2E/DX2 analytically  !
 ! D84   D(24,17,23,22)        -79.735          calculate D2E/DX2 analytically  !
 ! D85   D(24,17,23,42)         41.6921         calculate D2E/DX2 analytically  !
 ! D86   D(24,17,23,43)        159.4426         calculate D2E/DX2 analytically  !
 ! D87   D(36,17,23,22)         58.4819         calculate D2E/DX2 analytically  !
 ! D88   D(36,17,23,42)        179.909          calculate D2E/DX2 analytically  !
 ! D89   D(36,17,23,43)        -62.3405         calculate D2E/DX2 analytically  !
 ! D90   D(23,17,24,2)         -26.6371         calculate D2E/DX2 analytically  !
 ! D91   D(36,17,24,2)        -164.451          calculate D2E/DX2 analytically  !
 ! D92   D(13,18,19,14)        -64.9407         calculate D2E/DX2 analytically  !
 ! D93   D(13,18,19,20)        175.5824         calculate D2E/DX2 analytically  !
 ! D94   D(13,18,19,38)         56.9795         calculate D2E/DX2 analytically  !
 ! D95   D(16,18,19,14)        176.4864         calculate D2E/DX2 analytically  !
 ! D96   D(16,18,19,20)         57.0095         calculate D2E/DX2 analytically  !
 ! D97   D(16,18,19,38)        -61.5934         calculate D2E/DX2 analytically  !
 ! D98   D(37,18,19,14)         56.2135         calculate D2E/DX2 analytically  !
 ! D99   D(37,18,19,20)        -63.2634         calculate D2E/DX2 analytically  !
 ! D100  D(37,18,19,38)        178.1337         calculate D2E/DX2 analytically  !
 ! D101  D(14,19,20,15)         64.6918         calculate D2E/DX2 analytically  !
 ! D102  D(14,19,20,21)       -173.4484         calculate D2E/DX2 analytically  !
 ! D103  D(14,19,20,39)        -55.0977         calculate D2E/DX2 analytically  !
 ! D104  D(18,19,20,15)       -174.7228         calculate D2E/DX2 analytically  !
 ! D105  D(18,19,20,21)        -52.863          calculate D2E/DX2 analytically  !
 ! D106  D(18,19,20,39)         65.4877         calculate D2E/DX2 analytically  !
 ! D107  D(38,19,20,15)        -57.232          calculate D2E/DX2 analytically  !
 ! D108  D(38,19,20,21)         64.6278         calculate D2E/DX2 analytically  !
 ! D109  D(38,19,20,39)       -177.0215         calculate D2E/DX2 analytically  !
 ! D110  D(15,20,21,1)         -61.7256         calculate D2E/DX2 analytically  !
 ! D111  D(15,20,21,22)        173.6307         calculate D2E/DX2 analytically  !
 ! D112  D(15,20,21,40)         56.8517         calculate D2E/DX2 analytically  !
 ! D113  D(19,20,21,1)         176.9464         calculate D2E/DX2 analytically  !
 ! D114  D(19,20,21,22)         52.3027         calculate D2E/DX2 analytically  !
 ! D115  D(19,20,21,40)        -64.4763         calculate D2E/DX2 analytically  !
 ! D116  D(39,20,21,1)          58.4514         calculate D2E/DX2 analytically  !
 ! D117  D(39,20,21,22)        -66.1923         calculate D2E/DX2 analytically  !
 ! D118  D(39,20,21,40)        177.0287         calculate D2E/DX2 analytically  !
 ! D119  D(1,21,22,16)        -173.4079         calculate D2E/DX2 analytically  !
 ! D120  D(1,21,22,23)          69.1794         calculate D2E/DX2 analytically  !
 ! D121  D(1,21,22,41)         -52.5359         calculate D2E/DX2 analytically  !
 ! D122  D(20,21,22,16)        -53.5778         calculate D2E/DX2 analytically  !
 ! D123  D(20,21,22,23)       -170.9905         calculate D2E/DX2 analytically  !
 ! D124  D(20,21,22,41)         67.2942         calculate D2E/DX2 analytically  !
 ! D125  D(40,21,22,16)         62.9034         calculate D2E/DX2 analytically  !
 ! D126  D(40,21,22,23)        -54.5093         calculate D2E/DX2 analytically  !
 ! D127  D(40,21,22,41)       -176.2246         calculate D2E/DX2 analytically  !
 ! D128  D(16,22,23,17)        -60.1408         calculate D2E/DX2 analytically  !
 ! D129  D(16,22,23,42)       -179.9771         calculate D2E/DX2 analytically  !
 ! D130  D(16,22,23,43)         61.3555         calculate D2E/DX2 analytically  !
 ! D131  D(21,22,23,17)         59.5398         calculate D2E/DX2 analytically  !
 ! D132  D(21,22,23,42)        -60.2965         calculate D2E/DX2 analytically  !
 ! D133  D(21,22,23,43)       -178.9639         calculate D2E/DX2 analytically  !
 ! D134  D(41,22,23,17)       -178.5674         calculate D2E/DX2 analytically  !
 ! D135  D(41,22,23,42)         61.5963         calculate D2E/DX2 analytically  !
 ! D136  D(41,22,23,43)        -57.0711         calculate D2E/DX2 analytically  !
 --------------------------------------------------------------------------------
 Trust Radius=3.00D-01 FncErr=1.00D-07 GrdErr=1.00D-06
 Number of steps in this run=    286 maximum allowed number of steps=    288.
 Search for a saddle point of order  1.
 GradGradGradGradGradGradGradGradGradGradGradGradGradGradGradGradGradGrad

                          Input orientation:                          
 ---------------------------------------------------------------------
 Center     Atomic      Atomic             Coordinates (Angstroms)
 Number     Number       Type             X           Y           Z
 ---------------------------------------------------------------------
      1          8           0        1.136510    1.185443   -1.533371
      2          8           0       -0.250806    1.500768    2.236260
      3          8           0        1.402627    0.089501    4.035709
      4          8           0        4.336869    0.759974    3.549137
      5          8           0        2.906207    2.116583    0.829010
      6          8           0        2.464964   -0.441204   -0.106151
      7          6           0        1.661047    1.987157    0.912631
      8          6           0        1.016344    1.049732    1.874952
      9          6           0        1.945115    0.969794    3.093405
     10          6           0        3.308473    0.449397    2.644793
     11          6           0        3.760201    1.010349    1.292684
     12          6           0        3.715355    0.001060    0.127690
     13          8           0       -3.909006    0.416231   -3.371503
     14          8           0       -2.361568    2.546156   -4.364128
     15          8           0       -0.233120    3.285787   -2.681345
     16          8           0       -2.204887   -0.237435   -2.026837
     17          8           0       -1.356954   -0.516124    0.590179
     18          6           0       -2.535568    0.436560   -3.217563
     19          6           0       -2.104039    1.893521   -3.146750
     20          6           0       -0.621977    1.945809   -2.869385
     21          6           0       -0.255772    1.117781   -1.645712
     22          6           0       -0.809384   -0.299788   -1.766692
     23          6           0       -0.675238   -1.119903   -0.501966
     24          1           0       -0.887581    0.930966    1.768590
     25          1           0        0.505734    0.383189    4.237569
     26          1           0        1.604364    0.434909   -1.019922
     27          1           0        1.073546    2.758176    0.408837
     28          1           0        0.992838    0.046119    1.431180
     29          1           0        2.073885    1.978859    3.524972
     30          1           0        3.208897   -0.647692    2.543454
     31          1           0        4.743061    1.474279    1.403936
     32          1           0        4.433629   -0.789803    0.441502
     33          1           0        4.187745    0.512066   -0.741697
     34          1           0       -3.304455    2.473852   -4.548272
     35          1           0        0.705262    3.275713   -2.458695
     36          1           0       -2.284417   -0.426775    0.340020
     37          1           0       -2.026124   -0.059368   -4.068387
     38          1           0       -2.652865    2.367623   -2.312527
     39          1           0       -0.093267    1.514801   -3.741755
     40          1           0       -0.749312    1.594475   -0.772488
     41          1           0       -0.285451   -0.824125   -2.588407
     42          1           0        0.379488   -1.221462   -0.221711
     43          1           0       -1.080363   -2.124238   -0.687244
     44          1           0       -4.195076   -0.460875   -3.646416
     45          6           0        5.463406   -0.081862    3.426733
     46          1           0        5.208192   -1.136194    3.590702
     47          1           0        5.919561    0.016293    2.430368
     48          1           0        6.183746    0.238285    4.183925
 ---------------------------------------------------------------------
                    Distance matrix (angstroms):
                    1          2          3          4          5
     1  O    0.000000
     2  O    4.029168   0.000000
     3  O    5.682126   2.821973   0.000000
     4  O    6.021230   4.828994   3.048944   0.000000
     5  O    3.095108   3.510885   4.080776   3.359505   0.000000
     6  O    2.539238   4.078425   4.308737   4.278783   2.758894
     7  C    2.626939   2.375658   3.663536   3.951856   1.254658
     8  C    3.413140   1.392712   2.395857   3.729979   2.409097
     9  C    4.701851   2.416340   1.398980   2.443809   2.714094
    10  C    4.766156   3.733731   2.386718   1.404242   2.497678
    11  C    3.860181   4.149581   3.732332   2.342395   1.472431
    12  C    3.288210   4.735570   4.541932   3.559288   2.371077
    13  O    5.424726   6.782747   9.120690  10.770695   8.184292
    14  O    4.701199   7.008086   9.526887  10.520421   7.409634
    15  O    2.757748   5.231581   7.616477   8.129172   4.852319
    16  O    3.665109   5.001378   7.062259   8.653374   6.310352
    17  O    3.690821   2.828604   4.455754   6.542437   5.016246
    18  C    4.108708   6.008066   8.260738   9.650037   6.986426
    19  C    3.688567   5.706621   8.193834   9.359761   6.399921
    20  C    2.335673   5.138428   7.431368   8.197181   5.114232
    21  C    1.398445   3.900822   6.007178   6.943114   4.137628
    22  C    2.459035   4.424662   6.221929   7.474293   5.136354
    23  C    3.108190   3.813914   5.135239   6.713165   5.007303
    24  H    3.881321   0.974101   3.330607   5.522179   4.084278
    25  H    5.860481   2.413830   0.965100   3.910691   4.514997
    26  H    1.022653   3.896207   5.071431   5.333718   2.818044
    27  H    2.499925   2.583497   4.514900   4.950108   1.986664
    28  H    3.179192   2.076249   2.636926   4.022173   2.882778
    29  H    5.205287   2.700655   2.069085   2.570479   2.824879
    30  H    4.927035   4.084090   2.456194   2.065246   3.266827
    31  H    4.660301   5.062823   4.472397   2.297196   2.029070
    32  H    4.321194   5.514690   4.783145   3.473984   3.306094
    33  H    3.223386   5.435669   5.546084   4.300576   2.585331
    34  H    5.520126   7.503435  10.076035  11.264779   8.222842
    35  H    2.326248   5.109511   7.267431   7.457316   4.122711
    36  H    4.220377   3.383300   5.245851   7.453069   5.800893
    37  H    4.240061   6.733079   8.800845   9.959200   7.283347
    38  H    4.045244   5.216588   7.870004   9.262830   6.390271
    39  H    2.549076   5.980107   8.047243   8.564635   5.500080
    40  H    2.074265   3.051205   5.478553   6.726223   4.024949
    41  H    2.678327   5.355720   6.896610   7.845040   5.523874
    42  H    2.843717   3.721482   4.570674   5.814314   4.316349
    43  H    4.072400   4.730297   5.776865   7.457346   6.014676
    44  H    5.966668   7.349230   9.521147  11.227669   8.780715
    45  C    6.703038   6.047657   4.109761   1.411650   4.256829
    46  H    6.944401   6.211983   4.022770   2.087195   4.848364
    47  H    6.321053   6.349392   4.794286   2.075963   4.006977
    48  H    7.684997   6.840374   4.785729   2.021403   5.052298
                    6          7          8          9         10
     6  O    0.000000
     7  C    2.753386   0.000000
     8  C    2.871613   1.490124   0.000000
     9  C    3.535296   2.423117   1.534156   0.000000
    10  C    3.012038   2.842376   2.491368   1.526699   0.000000
    11  C    2.396119   2.346283   2.805234   2.557103   1.531967
    12  C    1.346758   2.963258   3.381907   3.587152   2.588893
    13  O    7.212850   7.200493   7.223966   8.739119   9.396218
    14  O    7.095780   6.658686   7.250910   8.754841   9.255849
    15  O    5.272736   4.265088   5.226944   6.592137   6.996838
    16  O    5.053520   5.341791   5.220832   6.700507   7.258995
    17  O    3.885556   3.934301   3.120111   4.402017   5.188437
    18  C    5.954551   6.088878   6.239052   7.758168   8.277693
    19  C    5.964224   5.537438   5.972124   7.495896   8.057466
    20  C    4.781474   4.417868   5.098606   6.564863   6.934973
    21  C    3.493292   3.312873   3.744060   5.227335   5.617741
    22  C    3.674064   4.302548   4.291393   5.728843   6.081055
    23  C    3.237000   4.136802   3.635726   4.915260   5.313638
    24  H    4.078856   2.888548   1.910589   3.127429   4.313526
    25  H    4.835919   3.868162   2.507381   1.930035   3.224386
    26  H    1.530746   2.479405   3.017295   4.161931   4.041576
    27  H    3.526654   1.092445   2.252009   3.341384   3.914698
    28  H    2.183581   2.117315   1.097600   2.126734   2.645308
    29  H    4.381176   2.644774   2.168925   1.105009   2.153643
    30  H    2.759797   3.463792   2.852268   2.125053   1.106250
    31  H    3.337539   3.162789   3.780280   3.307161   2.155957
    32  H    2.072942   3.952301   4.137210   4.039984   2.766963
    33  H    2.068965   3.361086   4.146531   4.466197   3.499337
    34  H    7.843225   7.396928   7.871164   9.392306   9.978448
    35  H    4.737772   3.733596   4.881830   6.138429   6.388299
    36  H    4.770314   4.660648   3.928245   5.236456   6.112289
    37  H    6.001249   6.526411   6.768308   8.253555   8.589735
    38  H    6.240976   5.399651   5.721443   7.233218   7.987000
    39  H    4.856760   4.996403   5.744121   7.153422   7.314022
    40  H    3.862585   2.967096   3.228502   4.753451   5.427212
    41  H    3.724648   4.893815   5.012742   6.362119   6.474915
    42  H    2.229656   3.636531   3.155931   4.271157   4.425784
    43  H    3.967318   5.194083   4.586405   5.746291   6.081772
    44  H    7.542546   7.814854   7.741210   9.228973   9.834183
    45  C    4.647693   5.005945   4.844057   3.687202   2.353168
    46  H    4.655645   5.432276   5.029280   3.915375   2.649108
    47  H    4.310159   4.931812   5.041629   4.140653   2.655436
    48  H    5.718024   5.849335   5.717678   4.437379   3.268132
                   11         12         13         14         15
    11  C    0.000000
    12  C    1.542040   0.000000
    13  O    8.995796   8.399262   0.000000
    14  O    8.475511   7.973891   2.813619   0.000000
    15  O    6.075947   5.854107   4.714107   2.812313   0.000000
    16  O    6.939630   6.304612   2.267031   3.638112   4.090151
    17  O    5.385992   5.119540   4.803871   5.910327   5.140078
    18  C    7.765840   7.103127   1.382188   2.407339   3.702282
    19  C    7.407960   6.940368   2.343247   1.405085   2.378097
    20  C    6.115667   5.619338   3.660094   2.370833   1.407874
    21  C    4.977324   4.490197   4.100810   3.723495   2.402769
    22  C    5.653083   4.914515   3.563111   4.153955   3.744999
    23  C    5.237543   4.574968   4.588159   5.585695   4.935105
    24  H    4.672758   4.974364   5.984523   6.510891   5.076950
    25  H    4.433648   5.228651   8.797102   9.321429   7.539387
    26  H    3.213551   2.441623   5.993958   5.600865   3.776795
    27  H    3.324786   3.828823   6.678436   5.884399   3.396318
    28  H    2.933806   3.018810   6.872468   7.147574   5.376921
    29  H    2.960538   4.260004   9.262730   9.068240   6.748978
    30  H    2.148828   2.552116   9.315750   9.431089   7.390417
    31  H    1.092530   2.203488   9.938941   9.213861   6.688308
    32  H    2.102038   1.113490   9.251653   8.966460   6.938383
    33  H    2.137706   1.113604   8.513662   7.755838   5.567747
    34  H    9.282671   8.789599   2.446236   0.963417   3.684800
    35  H    5.342038   5.145231   5.504664   3.683527   0.964487
    36  H    6.285722   6.018753   4.138279   5.565364   5.207647
    37  H    7.960335   7.111631   2.063271   2.643623   4.040892
    38  H    7.481120   7.218691   2.550931   2.079854   2.614234
    39  H    6.359974   5.636454   3.987958   2.568313   2.068918
    40  H    4.994181   4.825199   4.257558   4.050302   2.602062
    41  H    5.898768   4.905564   3.909204   4.338461   4.111296
    42  H    4.324765   3.569965   5.567262   6.234417   5.171110
    43  H    6.097279   5.308476   4.654079   6.080587   5.827747
    44  H    9.478694   8.776798   0.962667   3.594315   5.537683
    45  C    2.940748   3.734467  11.589056  11.350516   9.005559
    46  H    3.461966   3.938827  11.576079  11.581894   9.407463
    47  H    2.635395   3.187645  11.420262  11.006474   8.641451
    48  H    3.850835   4.754185  12.608719  12.305197   9.879037
                   16         17         18         19         20
    16  O    0.000000
    17  O    2.765037   0.000000
    18  C    1.407639   4.098248   0.000000
    19  C    2.409429   4.508787   1.521173   0.000000
    20  C    2.825251   4.309279   2.461888   1.508699   0.000000
    21  C    2.404354   2.980177   2.851710   2.504192   1.522206
    22  C    1.420912   2.429295   2.372119   2.896773   2.508737
    23  C    2.333197   1.421994   3.641136   4.256416   3.873771
    24  H    4.183984   1.924327   5.274658   5.154304   4.755130
    25  H    6.853862   4.193069   8.051792   7.976226   7.363580
    26  H    3.997039   3.502327   4.687074   4.516990   3.264954
    27  H    5.065009   4.081820   5.618397   4.846326   3.779084
    28  H    4.718446   2.558305   5.849180   5.827605   4.971047
    29  H    7.351356   5.158353   8.311890   7.872370   6.939493
    30  H    7.096825   4.967856   8.207545   8.189229   7.120440
    31  H    7.935625   6.467928   8.684098   8.232089   6.875118
    32  H    7.104062   5.798953   7.966331   7.925710   6.633604
    33  H    6.563466   5.794373   7.165093   6.875990   5.451248
    34  H    3.862352   6.255909   2.551966   1.934437   3.208298
    35  H    4.582322   5.284543   4.374889   3.205627   1.923246
    36  H    2.375750   0.964754   3.669444   4.192121   4.323557
    37  H    2.057083   4.728494   1.108774   2.160847   2.725797
    38  H    2.658690   4.291979   2.135849   1.105401   2.147679
    39  H    3.235771   4.948456   2.720701   2.130883   1.107399
    40  H    2.654804   2.584709   3.241893   2.749879   2.129936
    41  H    2.084179   3.368441   2.654843   3.317320   2.804413
    42  H    3.302391   2.042522   4.496856   4.942356   4.247907
    43  H    2.572759   2.072280   3.883017   4.820733   4.640812
    44  H    2.575619   5.099679   1.934754   3.188304   4.377550
    45  C    9.411076   7.399455  10.411485  10.216606   8.988016
    46  H    9.344423   7.244913  10.430333  10.394284   9.231594
    47  H    9.270259   7.524456  10.176687   9.950195   8.637252
    48  H   10.448399   8.387270  11.438871  11.187760   9.949004
                   21         22         23         24         25
    21  C    0.000000
    22  C    1.526638   0.000000
    23  C    2.547810   1.513313   0.000000
    24  H    3.477289   3.744207   3.067014   0.000000
    25  H    5.977668   6.184427   5.110496   2.887429   0.000000
    26  H    2.077988   2.631278   2.807544   3.772487   5.371301
    27  H    2.946040   4.198749   4.350552   3.005602   4.541163
    28  H    3.489234   3.687010   2.806980   2.105416   2.868223
    29  H    5.736264   6.442607   5.777217   3.599061   2.347990
    30  H    5.715762   5.902963   4.958233   4.457994   3.352586
    31  H    5.866496   6.635499   6.302397   5.668535   5.212954
    32  H    5.475931   5.710116   5.205730   5.747824   5.586984
    33  H    4.574820   5.165367   5.135114   5.677671   6.194102
    34  H    4.422471   4.653563   6.016681   6.937184   9.802011
    35  H    2.498239   3.944265   5.005598   5.089688   7.297017
    36  H    3.231746   2.574895   1.943920   2.415662   4.861262
    37  H    3.223225   2.614586   3.958407   6.028876   8.694542
    38  H    2.784385   3.288075   4.399088   4.672871   7.537804
    39  H    2.139493   2.776046   4.216229   5.597830   8.081396
    40  H    1.110558   2.140159   2.728831   2.629913   5.305000
    41  H    2.158832   1.106639   2.143048   4.735644   6.976928
    42  H    2.811297   2.156355   1.096040   3.193698   4.740888
    43  H    3.479842   2.137114   1.098701   3.924609   5.749494
    44  H    4.691811   3.875851   4.765621   6.496078   9.217770
    45  C    7.738077   8.146597   7.361736   6.641558   5.045021
    46  H    7.896539   8.100152   7.166934   6.689670   4.983981
    47  H    7.480805   7.936871   7.306223   6.900128   5.719276
    48  H    8.730726   9.198002   8.417120   7.504486   5.680114
                   26         27         28         29         30
    26  H    0.000000
    27  H    2.778613   0.000000
    28  H    2.555978   2.899474   0.000000
    29  H    4.822893   3.364270   3.047640   0.000000
    30  H    4.055145   4.551511   2.574771   3.024963   0.000000
    31  H    4.099609   4.012973   4.013048   3.446432   2.855682
    32  H    3.411806   4.886653   3.676584   4.768823   2.436876
    33  H    2.599465   4.008363   3.891777   4.982404   3.618757
    34  H    6.379894   6.619718   7.753352   9.713332  10.122271
    35  H    3.308870   2.937042   5.064001   6.273693   6.832480
    36  H    4.208867   4.628668   3.486353   5.909805   5.922873
    37  H    4.766329   6.131235   6.274591   8.866992   8.453876
    38  H    4.850795   4.630820   5.718031   7.521283   8.187364
    39  H    3.384744   4.487187   5.485974   7.597185   7.421894
    40  H    2.635452   2.464252   3.207592   5.156196   5.629405
    41  H    2.759839   4.864486   4.306788   7.127173   6.211086
    42  H    2.209305   4.088622   2.171407   5.210630   3.997612
    43  H    3.723932   5.447815   3.673735   6.672889   5.569143
    44  H    6.429184   7.386863   7.276914   9.832649   9.652368
    45  C    5.910330   6.036918   4.897406   3.968006   2.486595
    46  H    6.059191   6.510428   4.881660   4.419474   2.309230
    47  H    5.540818   5.923544   5.027113   4.454105   2.793092
    48  H    6.934654   6.834858   5.878780   4.511626   3.510816
                   31         32         33         34         35
    31  H    0.000000
    32  H    2.479535   0.000000
    33  H    2.416189   1.776311   0.000000
    34  H   10.059346   9.768686   8.629697   0.000000
    35  H    5.871022   6.232197   4.765870   4.592074   0.000000
    36  H    7.357402   6.728613   6.628757   5.774904   5.520815
    37  H    8.838566   7.912082   7.071462   2.877781   4.601559
    38  H    8.325256   8.232400   7.259790   2.331182   3.481811
    39  H    7.061859   6.580549   5.322865   3.447024   2.320496
    40  H    5.909097   5.832789   5.054413   4.643124   2.790276
    41  H    6.819633   5.608141   5.020481   4.881814   4.219835
    42  H    5.380568   4.130646   4.216435   6.778341   5.033370
    43  H    7.157837   5.784366   5.891182   6.402855   5.957010
    44  H   10.447065   9.553733   8.925004   3.196744   6.275833
    45  C    2.651826   3.236237   4.399531  12.124676   8.279584
    46  H    3.436984   3.261502   4.746341  12.318299   8.737076
    47  H    2.136220   2.610244   3.647872  11.824698   7.855932
    48  H    3.366243   4.257418   5.321722  13.087207   9.130397
                   36         37         38         39         40
    36  H    0.000000
    37  H    4.431225   0.000000
    38  H    3.870455   3.060414   0.000000
    39  H    5.023121   2.514087   3.053120   0.000000
    40  H    2.771222   3.902358   2.567682   3.041922   0.000000
    41  H    3.567834   2.409385   3.983468   2.614904   3.059797
    42  H    2.836099   4.683412   5.142782   4.483452   3.083350
    43  H    2.320861   4.073117   5.029028   4.852525   3.734393
    44  H    4.420798   2.245801   3.486843   4.553814   4.935303
    45  C    8.347186  10.595772  10.237819   9.209407   7.683842
    46  H    8.198134  10.590398  10.436525   9.428582   7.873108
    47  H    8.477684  10.265157  10.075232   8.746126   7.564576
    48  H    9.323502  11.644364  11.172451  10.190524   8.629749
                   41         42         43         44         45
    41  H    0.000000
    42  H    2.490235   0.000000
    43  H    2.436514   1.778452   0.000000
    44  H    4.066510   5.764871   4.607050   0.000000
    45  C    8.353575   6.360507   7.994812  11.977452   0.000000
    46  H    8.273988   6.152897   7.669614  11.885006   1.097103
    47  H    8.024748   6.265618   7.956149  11.809355   1.100208
    48  H    9.425694   7.431682   9.059640  13.020100   1.093034
                   46         47         48
    46  H    0.000000
    47  H    1.783437   0.000000
    48  H    1.786844   1.787187   0.000000
 Symmetry turned off by external request.
 Stoichiometry    C13H24O11
 Framework group  C1[X(C13H24O11)]
 Deg. of freedom   138
 Full point group                 C1      NOp   1
 Rotational constants (GHZ):      0.5168226      0.1191219      0.1113550
 Standard basis: 6-31+G(2df,p) (6D, 7F)
 Integral buffers will be    131072 words long.
 Raffenetti 2 integral format.
 Two-electron integral symmetry is turned off.
   888 basis functions,  1320 primitive gaussians,   960 cartesian basis functions
    95 alpha electrons       95 beta electrons
       nuclear repulsion energy      2487.1678081607 Hartrees.
 NAtoms=   48 NActive=   48 NUniq=   48 SFac= 1.00D+00 NAtFMM=   50 NAOKFM=F Big=F
 ------------------------------------------------------------------------------
 Polarizable Continuum Model (PCM)
 =================================
 Model                : PCM.
 Atomic radii         : UFF (Universal Force Field).
 Polarization charges : Total charges.
 Charge compensation  : None.
 Solution method      : Matrix inversion.
 Cavity type          : Scaled VdW (van der Waals Surface) (Alpha=1.100).
 Cavity algorithm     : GePol (No added spheres)
                        Default sphere list used, NSphG=   48.
                        Lebedev-Laikov grids with approx.  5.0 points / Ang**2.
                        Smoothing algorithm: Karplus/York (Gamma=1.0000).
                        Polarization charges: spherical gaussians, with
                                              point-specific exponents (IZeta= 3).
                        Self-potential: point-specific (ISelfS= 7).
                        Self-field    : sphere-specific E.n sum rule (ISelfD= 2).
 1st derivatives      : Analytical E(r).r(x)/FMM algorithm (CHGder, D1EAlg=3).
                        Cavity 1st derivative terms included.
 2nd derivatives      : Analytical E(r).r(xy)/FMM algorithm (CHGder, D2EAlg=3).
                        Cavity 2nd derivative terms included.
 Solvent              : TetraHydroFuran, Eps=   7.425700 Eps(inf)=   1.974025
 ------------------------------------------------------------------------------
 One-electron integrals computed using PRISM.
 NBasis=   888 RedAO= T  NBF=   888
 NBsUse=   888 1.00D-06 NBFU=   888
 Harris functional with IExCor=20419 diagonalized for initial guess.
 ExpMin= 4.38D-02 ExpMax= 5.48D+03 ExpMxC= 8.25D+02 IAcc=2 IRadAn=         0 AccDes= 0.00D+00
 HarFok:  IExCor=20419 AccDes= 0.00D+00 IRadAn=         0 IDoV= 1
 ScaDFX=  1.000000  1.000000  1.000000  1.000000
 FoFCou: FMM=F IPFlag=           0 FMFlag=      100000 FMFlg1=           0
         NFxFlg=           0 DoJE=T BraDBF=F KetDBF=T FulRan=T
         Omega=  0.000000  0.000000  1.000000  0.000000  0.000000 ICntrl=     500 IOpCl=  0
         NMat0=    1 NMatS0=    1 NMatT0=    0 NMatD0=    1 NMtDS0=    0 NMtDT0=    0
         I1Cent=           4 NGrid=           0.
 Symmetry not used in FoFCou.
 Requested convergence on RMS density matrix=1.00D-08 within  64 cycles.
 Requested convergence on MAX density matrix=1.00D-06.
 Requested convergence on             energy=1.00D-06.
 No special actions if energy rises.
 FoFJK:  IHMeth= 1 ICntrl=     0 DoSepK=T KAlg= 1 I1Cent= 0 FoldK=F
 FoFJK:  IHMeth= 1 ICntrl=     0 DoSepK=T KAlg= 1 I1Cent= 0 FoldK=F
 FoFJK:  IHMeth= 1 ICntrl=     0 DoSepK=T KAlg= 1 I1Cent= 0 FoldK=F
 FoFJK:  IHMeth= 1 ICntrl=     0 DoSepK=T KAlg= 1 I1Cent= 0 FoldK=F
 FoFJK:  IHMeth= 1 ICntrl=     0 DoSepK=T KAlg= 1 I1Cent= 0 FoldK=F
 FoFJK:  IHMeth= 1 ICntrl=     0 DoSepK=T KAlg= 1 I1Cent= 0 FoldK=F
 FoFJK:  IHMeth= 1 ICntrl=     0 DoSepK=T KAlg= 1 I1Cent= 0 FoldK=F
 FoFJK:  IHMeth= 1 ICntrl=     0 DoSepK=T KAlg= 1 I1Cent= 0 FoldK=F
 FoFJK:  IHMeth= 1 ICntrl=     0 DoSepK=T KAlg= 1 I1Cent= 0 FoldK=F
 FoFJK:  IHMeth= 1 ICntrl=     0 DoSepK=T KAlg= 1 I1Cent= 0 FoldK=F
 FoFJK:  IHMeth= 1 ICntrl=     0 DoSepK=T KAlg= 1 I1Cent= 0 FoldK=F
 FoFJK:  IHMeth= 1 ICntrl=     0 DoSepK=T KAlg= 1 I1Cent= 0 FoldK=F
 FoFJK:  IHMeth= 1 ICntrl=     0 DoSepK=T KAlg= 1 I1Cent= 0 FoldK=F
 FoFJK:  IHMeth= 1 ICntrl=     0 DoSepK=T KAlg= 1 I1Cent= 0 FoldK=F
 FoFJK:  IHMeth= 1 ICntrl=     0 DoSepK=T KAlg= 1 I1Cent= 0 FoldK=F
 Error on total polarization charges =  0.01714
 SCF Done:  E(RCAM-B3LYP) =  -1336.80828220     A.U. after   15 cycles
             Convg  =    0.5270D-08             -V/T =  2.0063
 QCSCF skips out because SCF is already converged.
 Range of M.O.s used for correlation:     1   888
 NBasis=   888 NAE=    95 NBE=    95 NFC=     0 NFV=     0
 NROrb=    888 NOA=    95 NOB=    95 NVA=   793 NVB=   793

 **** Warning!!: The largest alpha MO coefficient is  0.76563531D+02

 Symmetrizing basis deriv contribution to polar:
 IMax=3 JMax=2 DiffMx= 0.00D+00
 G2DrvN: will do    49 centers at a time, making    1 passes doing MaxLOS=3.
 Calling FoFCou, ICntrl=  3107 FMM=F I1Cent=   0 AccDes= 0.00D+00.
 FoFJK:  IHMeth= 1 ICntrl=  3107 DoSepK=T KAlg= 1 I1Cent= 0 FoldK=F
 FoFDir/FoFCou used for L=0 through L=3.
 G2PCM: DoFxE=T DoFxN=T DoGrad=T DoPD/DQ/DG=FFF NFrqRd=   0 IEInf=0 DoCFld=F IF1Alg=4.
 End of G2Drv Frequency-dependent properties file   721 does not exist.
 End of G2Drv Frequency-dependent properties file   722 does not exist.
          IDoAtm=111111111111111111111111111111111111111111111111
 NEqPCM:  Using equilibrium solvation (IEInf=0, Eps=   7.4257, EpsInf=   1.9740)
          Differentiating once with respect to nuclear coordinates.
 FoFJK:  IHMeth= 1 ICntrl=     0 DoSepK=T KAlg= 1 I1Cent= 0 FoldK=F
          There are   147 degrees of freedom in the 1st order CPHF.  IDoFFX=5.
    141 vectors produced by pass  0 Test12= 7.53D-10 1.00D-07 XBig12= 1.14D-01 7.69D-02.
 AX will form   141 AO Fock derivatives at one time.
 FoFJK:  IHMeth= 1 ICntrl=     0 DoSepK=T KAlg= 1 I1Cent= 0 FoldK=F
    141 vectors produced by pass  1 Test12= 7.53D-10 1.00D-07 XBig12= 1.68D-02 4.19D-02.
 FoFJK:  IHMeth= 1 ICntrl=     0 DoSepK=T KAlg= 1 I1Cent= 0 FoldK=F
    141 vectors produced by pass  2 Test12= 7.53D-10 1.00D-07 XBig12= 4.81D-04 4.05D-03.
 FoFJK:  IHMeth= 1 ICntrl=     0 DoSepK=T KAlg= 1 I1Cent= 0 FoldK=F
    141 vectors produced by pass  3 Test12= 7.53D-10 1.00D-07 XBig12= 5.18D-06 2.85D-04.
 FoFJK:  IHMeth= 1 ICntrl=     0 DoSepK=T KAlg= 1 I1Cent= 0 FoldK=F
    141 vectors produced by pass  4 Test12= 7.53D-10 1.00D-07 XBig12= 3.07D-08 1.42D-05.
 FoFJK:  IHMeth= 1 ICntrl=     0 DoSepK=T KAlg= 1 I1Cent= 0 FoldK=F
     64 vectors produced by pass  5 Test12= 7.53D-10 1.00D-07 XBig12= 1.59D-10 8.86D-07.
 FoFJK:  IHMeth= 1 ICntrl=     0 DoSepK=T KAlg= 1 I1Cent= 0 FoldK=F
 Inverted reduced A of dimension   769 with in-core refinement.
 End of Minotr Frequency-dependent properties file   721 does not exist.
 End of Minotr Frequency-dependent properties file   722 does not exist.

 **********************************************************************

            Population analysis using the SCF density.

 **********************************************************************

 Alpha  occ. eigenvalues --  -19.35230 -19.25128 -19.25068 -19.24732 -19.24569
 Alpha  occ. eigenvalues --  -19.24447 -19.24248 -19.23319 -19.22841 -19.20938
 Alpha  occ. eigenvalues --  -19.14395 -10.42470 -10.36909 -10.34716 -10.34304
 Alpha  occ. eigenvalues --  -10.34152 -10.33647 -10.32153 -10.31608 -10.31282
 Alpha  occ. eigenvalues --  -10.31229 -10.31228 -10.30959 -10.29752  -1.26481
 Alpha  occ. eigenvalues --   -1.18363  -1.15875  -1.14759  -1.13620  -1.13283
 Alpha  occ. eigenvalues --   -1.12685  -1.11870  -1.10826  -1.09234  -1.03303
 Alpha  occ. eigenvalues --   -0.90808  -0.90102  -0.87273  -0.86403  -0.80743
 Alpha  occ. eigenvalues --   -0.78140  -0.76790  -0.74439  -0.73330  -0.70837
 Alpha  occ. eigenvalues --   -0.70481  -0.67295  -0.66737  -0.65384  -0.64469
 Alpha  occ. eigenvalues --   -0.63437  -0.62173  -0.61171  -0.61074  -0.59831
 Alpha  occ. eigenvalues --   -0.59670  -0.59098  -0.58206  -0.57873  -0.57060
 Alpha  occ. eigenvalues --   -0.55042  -0.53905  -0.52831  -0.52389  -0.51812
 Alpha  occ. eigenvalues --   -0.51384  -0.51081  -0.49524  -0.49399  -0.48957
 Alpha  occ. eigenvalues --   -0.47797  -0.47302  -0.46997  -0.46782  -0.45970
 Alpha  occ. eigenvalues --   -0.45626  -0.44679  -0.43829  -0.43067  -0.42780
 Alpha  occ. eigenvalues --   -0.41417  -0.41024  -0.40133  -0.39530  -0.39364
 Alpha  occ. eigenvalues --   -0.38789  -0.37817  -0.36887  -0.36570  -0.35581
 Alpha  occ. eigenvalues --   -0.34601  -0.34016  -0.33171  -0.29039  -0.28903
 Alpha virt. eigenvalues --   -0.05645   0.02879   0.02973   0.03111   0.03811
 Alpha virt. eigenvalues --    0.04473   0.04700   0.05044   0.05687   0.06179
 Alpha virt. eigenvalues --    0.06599   0.06808   0.07383   0.07469   0.07968
 Alpha virt. eigenvalues --    0.08904   0.08982   0.09505   0.10252   0.10573
 Alpha virt. eigenvalues --    0.11040   0.11311   0.11646   0.12093   0.12264
 Alpha virt. eigenvalues --    0.12615   0.12885   0.13262   0.13972   0.14260
 Alpha virt. eigenvalues --    0.14611   0.14947   0.15388   0.15722   0.16509
 Alpha virt. eigenvalues --    0.16592   0.16821   0.17004   0.17475   0.17852
 Alpha virt. eigenvalues --    0.18071   0.18390   0.19017   0.19312   0.19762
 Alpha virt. eigenvalues --    0.19797   0.20245   0.20863   0.21041   0.21291
 Alpha virt. eigenvalues --    0.21847   0.22088   0.22261   0.22800   0.23230
 Alpha virt. eigenvalues --    0.23339   0.23843   0.24415   0.24702   0.24866
 Alpha virt. eigenvalues --    0.25080   0.25594   0.25914   0.26411   0.26522
 Alpha virt. eigenvalues --    0.26692   0.26779   0.27379   0.27463   0.27768
 Alpha virt. eigenvalues --    0.28143   0.28339   0.28876   0.29134   0.29389
 Alpha virt. eigenvalues --    0.29742   0.29821   0.29918   0.30604   0.31237
 Alpha virt. eigenvalues --    0.31340   0.31504   0.31720   0.32008   0.32207
 Alpha virt. eigenvalues --    0.32580   0.33079   0.33546   0.33723   0.33972
 Alpha virt. eigenvalues --    0.34447   0.34677   0.34878   0.35069   0.35286
 Alpha virt. eigenvalues --    0.35506   0.35936   0.36239   0.36435   0.36990
 Alpha virt. eigenvalues --    0.37229   0.37440   0.37789   0.37880   0.38403
 Alpha virt. eigenvalues --    0.38746   0.39214   0.39589   0.39761   0.40275
 Alpha virt. eigenvalues --    0.40521   0.40969   0.41045   0.41540   0.41730
 Alpha virt. eigenvalues --    0.42024   0.42325   0.42982   0.43262   0.43745
 Alpha virt. eigenvalues --    0.44182   0.44422   0.44606   0.45223   0.45885
 Alpha virt. eigenvalues --    0.46330   0.46364   0.46973   0.47282   0.48060
 Alpha virt. eigenvalues --    0.48188   0.48344   0.48672   0.49379   0.49506
 Alpha virt. eigenvalues --    0.50033   0.50885   0.51183   0.52262   0.53146
 Alpha virt. eigenvalues --    0.53575   0.54465   0.55047   0.56383   0.57759
 Alpha virt. eigenvalues --    0.62622   0.64147   0.64560   0.64838   0.65302
 Alpha virt. eigenvalues --    0.66735   0.66984   0.67952   0.68256   0.69133
 Alpha virt. eigenvalues --    0.69585   0.71438   0.71573   0.71858   0.72664
 Alpha virt. eigenvalues --    0.73307   0.74419   0.74508   0.75259   0.76090
 Alpha virt. eigenvalues --    0.76553   0.77513   0.77985   0.78712   0.79318
 Alpha virt. eigenvalues --    0.79728   0.80178   0.80707   0.82131   0.82548
 Alpha virt. eigenvalues --    0.83109   0.83302   0.83477   0.85108   0.85659
 Alpha virt. eigenvalues --    0.86415   0.87088   0.87351   0.87913   0.89007
 Alpha virt. eigenvalues --    0.89143   0.90900   0.91580   0.92449   0.92813
 Alpha virt. eigenvalues --    0.93483   0.95381   0.95559   0.95924   0.96324
 Alpha virt. eigenvalues --    0.97262   0.97767   0.98291   0.98512   0.98816
 Alpha virt. eigenvalues --    0.99683   0.99837   1.00357   1.00840   1.01583
 Alpha virt. eigenvalues --    1.02076   1.02481   1.03543   1.04059   1.04278
 Alpha virt. eigenvalues --    1.04823   1.05638   1.06262   1.06665   1.07330
 Alpha virt. eigenvalues --    1.07449   1.08376   1.08520   1.09805   1.10352
 Alpha virt. eigenvalues --    1.10673   1.11409   1.11505   1.12413   1.13213
 Alpha virt. eigenvalues --    1.13739   1.14002   1.14468   1.14918   1.15872
 Alpha virt. eigenvalues --    1.17242   1.17636   1.18453   1.18766   1.18979
 Alpha virt. eigenvalues --    1.19524   1.20164   1.20809   1.21450   1.22841
 Alpha virt. eigenvalues --    1.23395   1.23561   1.24361   1.24484   1.25105
 Alpha virt. eigenvalues --    1.25581   1.25827   1.26334   1.27013   1.27512
 Alpha virt. eigenvalues --    1.27658   1.28193   1.29260   1.29521   1.30027
 Alpha virt. eigenvalues --    1.30646   1.31054   1.31593   1.32664   1.32964
 Alpha virt. eigenvalues --    1.33675   1.34024   1.34134   1.34542   1.35776
 Alpha virt. eigenvalues --    1.36307   1.36726   1.37562   1.37886   1.38248
 Alpha virt. eigenvalues --    1.39492   1.39838   1.40472   1.40794   1.41220
 Alpha virt. eigenvalues --    1.41922   1.42338   1.43390   1.43921   1.44539
 Alpha virt. eigenvalues --    1.45360   1.45979   1.47440   1.47699   1.48722
 Alpha virt. eigenvalues --    1.49288   1.49501   1.50774   1.51257   1.51932
 Alpha virt. eigenvalues --    1.52457   1.53558   1.53772   1.54363   1.55340
 Alpha virt. eigenvalues --    1.56289   1.56654   1.58009   1.58500   1.59241
 Alpha virt. eigenvalues --    1.60149   1.60488   1.60854   1.61749   1.62702
 Alpha virt. eigenvalues --    1.63344   1.64034   1.65026   1.65075   1.65609
 Alpha virt. eigenvalues --    1.66069   1.66380   1.67567   1.68842   1.69400
 Alpha virt. eigenvalues --    1.70405   1.70926   1.71524   1.72426   1.72756
 Alpha virt. eigenvalues --    1.73859   1.74323   1.75293   1.76048   1.76604
 Alpha virt. eigenvalues --    1.77614   1.78712   1.79549   1.79901   1.80769
 Alpha virt. eigenvalues --    1.81921   1.83583   1.83981   1.84810   1.85846
 Alpha virt. eigenvalues --    1.87299   1.87874   1.88623   1.90066   1.90351
 Alpha virt. eigenvalues --    1.91183   1.92071   1.92824   1.93865   1.94734
 Alpha virt. eigenvalues --    1.95864   1.96631   1.97049   1.98214   1.98819
 Alpha virt. eigenvalues --    2.00148   2.00824   2.01357   2.01995   2.02597
 Alpha virt. eigenvalues --    2.03803   2.05214   2.05942   2.07313   2.08178
 Alpha virt. eigenvalues --    2.09129   2.09519   2.10569   2.10706   2.11613
 Alpha virt. eigenvalues --    2.13067   2.16532   2.17744   2.18466   2.20425
 Alpha virt. eigenvalues --    2.20996   2.22735   2.25388   2.27904   2.28796
 Alpha virt. eigenvalues --    2.29612   2.30203   2.32773   2.33677   2.36612
 Alpha virt. eigenvalues --    2.36775   2.38617   2.40387   2.40932   2.41493
 Alpha virt. eigenvalues --    2.41636   2.44942   2.45733   2.46506   2.48482
 Alpha virt. eigenvalues --    2.49374   2.50443   2.50953   2.55108   2.55852
 Alpha virt. eigenvalues --    2.57615   2.58373   2.60070   2.60451   2.62520
 Alpha virt. eigenvalues --    2.63691   2.64799   2.65207   2.65979   2.66696
 Alpha virt. eigenvalues --    2.67430   2.68341   2.69301   2.69933   2.70228
 Alpha virt. eigenvalues --    2.71161   2.71776   2.74147   2.76058   2.77940
 Alpha virt. eigenvalues --    2.78665   2.79188   2.80691   2.82305   2.83703
 Alpha virt. eigenvalues --    2.83744   2.84433   2.85666   2.87099   2.87758
 Alpha virt. eigenvalues --    2.88830   2.89684   2.90331   2.90905   2.93078
 Alpha virt. eigenvalues --    2.93764   2.94334   2.95947   2.96826   2.97965
 Alpha virt. eigenvalues --    2.98584   2.99247   2.99647   3.01122   3.01927
 Alpha virt. eigenvalues --    3.02463   3.03593   3.03814   3.05491   3.07392
 Alpha virt. eigenvalues --    3.07580   3.08506   3.09135   3.09755   3.11176
 Alpha virt. eigenvalues --    3.11928   3.12191   3.12860   3.14515   3.15058
 Alpha virt. eigenvalues --    3.15556   3.16383   3.17591   3.19762   3.20540
 Alpha virt. eigenvalues --    3.21620   3.22109   3.22843   3.23617   3.25714
 Alpha virt. eigenvalues --    3.25918   3.27595   3.29156   3.29478   3.29830
 Alpha virt. eigenvalues --    3.31720   3.32812   3.33189   3.35871   3.36649
 Alpha virt. eigenvalues --    3.37070   3.37386   3.39368   3.39728   3.40764
 Alpha virt. eigenvalues --    3.41803   3.43427   3.43997   3.44825   3.46765
 Alpha virt. eigenvalues --    3.47537   3.47899   3.49992   3.51382   3.51680
 Alpha virt. eigenvalues --    3.52359   3.52724   3.55223   3.55631   3.56995
 Alpha virt. eigenvalues --    3.58311   3.58379   3.59652   3.61106   3.62619
 Alpha virt. eigenvalues --    3.62849   3.65809   3.67271   3.67482   3.68208
 Alpha virt. eigenvalues --    3.69270   3.71290   3.72179   3.73722   3.74180
 Alpha virt. eigenvalues --    3.74553   3.75364   3.76543   3.77986   3.78808
 Alpha virt. eigenvalues --    3.79873   3.81662   3.82793   3.83754   3.86043
 Alpha virt. eigenvalues --    3.88728   3.89410   3.90994   3.94417   3.95304
 Alpha virt. eigenvalues --    3.96299   3.98478   3.99182   4.00195   4.00691
 Alpha virt. eigenvalues --    4.01364   4.05712   4.08959   4.09950   4.11245
 Alpha virt. eigenvalues --    4.12307   4.13680   4.14657   4.18674   4.19632
 Alpha virt. eigenvalues --    4.20392   4.21988   4.24012   4.25944   4.26882
 Alpha virt. eigenvalues --    4.27828   4.29377   4.30966   4.32326   4.33450
 Alpha virt. eigenvalues --    4.34379   4.35615   4.36072   4.37228   4.37685
 Alpha virt. eigenvalues --    4.38323   4.38792   4.39343   4.41141   4.41605
 Alpha virt. eigenvalues --    4.42743   4.42896   4.44574   4.44683   4.46061
 Alpha virt. eigenvalues --    4.46613   4.47430   4.48446   4.49125   4.49495
 Alpha virt. eigenvalues --    4.50489   4.51371   4.52273   4.53734   4.53844
 Alpha virt. eigenvalues --    4.54387   4.54918   4.55651   4.56663   4.57281
 Alpha virt. eigenvalues --    4.58426   4.58972   4.59074   4.59706   4.60097
 Alpha virt. eigenvalues --    4.61421   4.61679   4.62626   4.63166   4.64805
 Alpha virt. eigenvalues --    4.65233   4.66140   4.66298   4.67308   4.67870
 Alpha virt. eigenvalues --    4.68380   4.69069   4.69293   4.69867   4.70199
 Alpha virt. eigenvalues --    4.71085   4.72268   4.72445   4.73411   4.73978
 Alpha virt. eigenvalues --    4.74286   4.75713   4.75720   4.76679   4.76866
 Alpha virt. eigenvalues --    4.77142   4.78012   4.78963   4.79262   4.80223
 Alpha virt. eigenvalues --    4.80478   4.80580   4.81154   4.81771   4.82713
 Alpha virt. eigenvalues --    4.82932   4.83424   4.84215   4.85049   4.86283
 Alpha virt. eigenvalues --    4.86544   4.87321   4.87925   4.90189   4.90578
 Alpha virt. eigenvalues --    4.91130   4.91838   4.92077   4.93246   4.94041
 Alpha virt. eigenvalues --    4.95286   4.96811   4.97862   4.99249   4.99430
 Alpha virt. eigenvalues --    5.00332   5.01560   5.02831   5.03158   5.03848
 Alpha virt. eigenvalues --    5.04589   5.05621   5.06394   5.06461   5.09967
 Alpha virt. eigenvalues --    5.10379   5.10640   5.13686   5.14753   5.15690
 Alpha virt. eigenvalues --    5.17010   5.17660   5.20025   5.20084   5.21449
 Alpha virt. eigenvalues --    5.23509   5.27645   5.29264   5.29363   5.30314
 Alpha virt. eigenvalues --    5.32052   5.34559   5.34998   5.35188   5.36732
 Alpha virt. eigenvalues --    5.38821   5.39691   5.39844   5.41200   5.42351
 Alpha virt. eigenvalues --    5.42626   5.43640   5.45006   5.46530   5.47750
 Alpha virt. eigenvalues --    5.48338   5.49548   5.49663   5.51224   5.51721
 Alpha virt. eigenvalues --    5.52151   5.53939   5.54429   5.54993   5.55366
 Alpha virt. eigenvalues --    5.56208   5.57405   5.57729   5.59031   5.59628
 Alpha virt. eigenvalues --    5.60477   5.63026   5.64484   5.64639   5.66188
 Alpha virt. eigenvalues --    5.67147   5.68139   5.69813   5.70855   5.71911
 Alpha virt. eigenvalues --    5.72070   5.74368   5.77494   5.82139   5.83781
 Alpha virt. eigenvalues --    5.84454   5.86334   5.86846   5.90714   5.92810
 Alpha virt. eigenvalues --    5.93795   5.94580   5.95818   6.00601   6.00909
 Alpha virt. eigenvalues --    6.02443   6.04142   6.04704   6.05075   6.06106
 Alpha virt. eigenvalues --    6.09453   6.10878   6.11525   6.11978   6.13554
 Alpha virt. eigenvalues --    6.15045   6.15111   6.16418   6.16586   6.18169
 Alpha virt. eigenvalues --    6.19117   6.20044   6.21055   6.22319   6.22928
 Alpha virt. eigenvalues --    6.23217   6.24191   6.25520   6.29381   6.31722
 Alpha virt. eigenvalues --    6.33073   6.34926   6.37735   6.38108   6.42242
 Alpha virt. eigenvalues --    6.45719   6.51602   6.59653   6.78922   7.07393
 Alpha virt. eigenvalues --    7.08407   7.10019   7.23606   7.25576   7.30456
 Alpha virt. eigenvalues --    7.35655   7.38260   7.40789   7.48284   7.51077
 Alpha virt. eigenvalues --    7.51345   7.59892   8.14112   8.26329  12.13415
 Alpha virt. eigenvalues --   12.19342  12.24454  12.39644  12.45349  12.66375
 Alpha virt. eigenvalues --   12.69472  12.90967  13.00431  13.09369  13.11602
 Alpha virt. eigenvalues --   13.26815  13.48661  13.58974  13.59432  13.64838
 Alpha virt. eigenvalues --   13.69479  13.70865  13.76099  13.81872  13.99645
 Alpha virt. eigenvalues --   14.05874  14.11812  14.28544
          Condensed to atoms (all electrons):
              1          2          3          4          5          6
     1  O    8.475922  -0.008397  -0.000145  -0.000068  -0.005498  -0.133044
     2  O   -0.008397   8.116269  -0.017583   0.000394  -0.003665   0.001637
     3  O   -0.000145  -0.017583   8.077564   0.001913   0.000941   0.001131
     4  O   -0.000068   0.000394   0.001913   7.875413  -0.001423   0.005207
     5  O   -0.005498  -0.003665   0.000941  -0.001423   7.262201  -0.013367
     6  O   -0.133044   0.001637   0.001131   0.005207  -0.013367   8.869008
     7  C    0.032250  -0.109812   0.012958   0.004648   0.278229   0.096553
     8  C   -0.001026   0.230848   0.016281   0.022284   0.025191  -0.079611
     9  C    0.012190  -0.039753   0.207694  -0.102691   0.060740   0.050875
    10  C   -0.001018   0.011581  -0.105752   0.393456  -0.126651  -0.079140
    11  C   -0.013493  -0.003126   0.007311  -0.164423   0.394102  -0.131623
    12  C    0.055901   0.003485   0.003844   0.026017  -0.078103   0.058646
    13  O   -0.000096   0.000000   0.000000   0.000000   0.000000   0.000004
    14  O    0.000311   0.000004   0.000000   0.000000   0.000001   0.000002
    15  O   -0.017288   0.000534  -0.000001   0.000001  -0.000421  -0.001027
    16  O    0.001671   0.000197  -0.000004   0.000000   0.000038  -0.000098
    17  O   -0.000410  -0.060682  -0.001747   0.000011  -0.001184   0.001337
    18  C    0.000829   0.000914  -0.000020   0.000001  -0.000232  -0.000630
    19  C   -0.010543  -0.001721   0.000008   0.000003   0.000988  -0.000892
    20  C   -0.180556   0.016544   0.000765   0.000138   0.001820  -0.028166
    21  C    0.146909   0.009750   0.003864   0.000037   0.001192   0.044845
    22  C    0.008384  -0.025949  -0.002158   0.000166   0.003966   0.055348
    23  C    0.015187   0.029785  -0.000895  -0.000242  -0.002040  -0.069820
    24  H    0.000245   0.281392  -0.000551  -0.000011  -0.000092   0.000612
    25  H   -0.000002   0.014801   0.280828  -0.000718  -0.000030  -0.000016
    26  H    0.203709  -0.000777   0.000012  -0.000024  -0.002470   0.059860
    27  H   -0.009227   0.010301  -0.000327  -0.000087  -0.012673  -0.001473
    28  H    0.000077  -0.014839   0.001754   0.000924  -0.002709  -0.031001
    29  H   -0.000022  -0.001213  -0.022572   0.002882   0.006284  -0.000374
    30  H   -0.000055  -0.000571  -0.000521  -0.027276   0.005625   0.003470
    31  H    0.000060   0.000009  -0.000134   0.001093  -0.026916   0.006012
    32  H   -0.001473  -0.000002  -0.000055  -0.002357   0.003433  -0.046962
    33  H    0.000950   0.000043   0.000023   0.001346   0.004355  -0.047117
    34  H   -0.000025   0.000000   0.000000   0.000000   0.000000   0.000000
    35  H    0.010185   0.000061   0.000000   0.000000  -0.000005   0.000111
    36  H    0.000173   0.002988   0.000000   0.000000  -0.000006  -0.000202
    37  H    0.000092   0.000001   0.000000   0.000000   0.000000   0.000007
    38  H    0.000940   0.000014   0.000000   0.000000   0.000003   0.000006
    39  H   -0.000759  -0.000005   0.000000   0.000000   0.000036  -0.000056
    40  H   -0.054034   0.003118  -0.000035  -0.000001   0.001495  -0.001233
    41  H    0.002195   0.000044   0.000000   0.000000  -0.000015  -0.000484
    42  H   -0.005168   0.000968  -0.000002  -0.000001  -0.000024  -0.010731
    43  H    0.001092  -0.000219  -0.000003   0.000000   0.000002   0.001468
    44  H    0.000002   0.000000   0.000000   0.000000   0.000000   0.000000
    45  C    0.000243   0.001219  -0.003728   0.160786  -0.006347   0.003692
    46  H    0.000000  -0.000001   0.000294  -0.041823  -0.000148   0.000060
    47  H   -0.000001   0.000002  -0.000114  -0.041044   0.000668  -0.000189
    48  H    0.000000  -0.000001   0.000046  -0.039750   0.000038   0.000008
              7          8          9         10         11         12
     1  O    0.032250  -0.001026   0.012190  -0.001018  -0.013493   0.055901
     2  O   -0.109812   0.230848  -0.039753   0.011581  -0.003126   0.003485
     3  O    0.012958   0.016281   0.207694  -0.105752   0.007311   0.003844
     4  O    0.004648   0.022284  -0.102691   0.393456  -0.164423   0.026017
     5  O    0.278229   0.025191   0.060740  -0.126651   0.394102  -0.078103
     6  O    0.096553  -0.079611   0.050875  -0.079140  -0.131623   0.058646
     7  C    6.951697  -1.067822  -0.092273   0.401098  -0.795546   0.269304
     8  C   -1.067822   8.116811  -1.220412  -0.711948   0.383106  -0.074835
     9  C   -0.092273  -1.220412   8.085472  -0.305146  -0.336589   0.037211
    10  C    0.401098  -0.711948  -0.305146   6.503247  -0.140223  -0.036949
    11  C   -0.795546   0.383106  -0.336589  -0.140223   7.192229  -0.746395
    12  C    0.269304  -0.074835   0.037211  -0.036949  -0.746395   6.152154
    13  O   -0.000019   0.000048  -0.000007  -0.000005  -0.000004   0.000003
    14  O   -0.000261   0.000219   0.000017   0.000003  -0.000025   0.000048
    15  O    0.001380  -0.007702  -0.000716   0.000338  -0.000249   0.000482
    16  O    0.000673  -0.003745  -0.000471   0.000158  -0.000396   0.000159
    17  O    0.040418  -0.001029   0.019146   0.005335   0.000434  -0.001906
    18  C    0.003924  -0.000862  -0.002074   0.000384  -0.001624   0.001575
    19  C   -0.001684  -0.004390   0.003235  -0.000571   0.002339  -0.001146
    20  C    0.032288  -0.093872  -0.045002   0.008585   0.033314  -0.032387
    21  C   -0.113590   0.076234  -0.139490   0.022215   0.048150  -0.083002
    22  C   -0.107407   0.144983   0.089152  -0.011250  -0.009669   0.018323
    23  C    0.041366  -0.107823  -0.077056   0.009969  -0.008572   0.009838
    24  H   -0.008697  -0.013855   0.002462  -0.003271  -0.001010   0.000024
    25  H    0.010116  -0.108141   0.036564   0.036913  -0.003141  -0.000576
    26  H    0.005404   0.003444   0.009291  -0.000578  -0.002978  -0.019314
    27  H    0.264204   0.051655  -0.063029   0.015010   0.022474  -0.001894
    28  H   -0.019457   0.345057  -0.088748   0.057696   0.030876  -0.010467
    29  H   -0.000167  -0.003815   0.394144  -0.111849   0.010626  -0.000051
    30  H    0.007673   0.017879   0.022914   0.370529  -0.119140   0.018908
    31  H    0.021066  -0.007484  -0.021835  -0.031589   0.309263   0.042865
    32  H   -0.004356   0.007837   0.042140  -0.000776  -0.103888   0.436620
    33  H    0.018866  -0.008165  -0.011853  -0.015736  -0.164880   0.535810
    34  H    0.000000  -0.000009  -0.000001   0.000000   0.000000   0.000000
    35  H    0.000797  -0.002031  -0.000795   0.000089   0.000159  -0.000333
    36  H   -0.000073  -0.002908  -0.000047   0.000036  -0.000140   0.000135
    37  H   -0.000091   0.000139   0.000004   0.000003  -0.000009   0.000023
    38  H    0.000227  -0.000407  -0.000035  -0.000009  -0.000003   0.000014
    39  H   -0.002907   0.000929   0.000176  -0.000020   0.000417  -0.000210
    40  H   -0.032127   0.003447  -0.003346   0.003155   0.002020  -0.002108
    41  H   -0.001181   0.001816   0.000491   0.000360  -0.000451  -0.000152
    42  H    0.007879  -0.025623  -0.010914   0.003336   0.002014  -0.001888
    43  H    0.002107   0.000626   0.000081  -0.000131   0.000780  -0.001251
    44  H    0.000011   0.000000   0.000000   0.000000   0.000000   0.000000
    45  C    0.016072  -0.018844  -0.149689  -0.134555   0.123259  -0.054415
    46  H    0.000985  -0.003130   0.015238   0.030185  -0.023685  -0.001197
    47  H   -0.003484   0.005025  -0.002241  -0.034181   0.060179  -0.021418
    48  H    0.000774  -0.001443  -0.003521  -0.006219   0.002488   0.003471
             13         14         15         16         17         18
     1  O   -0.000096   0.000311  -0.017288   0.001671  -0.000410   0.000829
[...]
 .00026936,0.00016801,0.00087939,-0.00173657,-0.00075583,-0.00435456,-0
 .00482246,0.00082611,0.00530445,-0.00046503,-0.00101441,-0.00025272,-0
 .00005075,0.00090797,0.00024111,-0.00004727,-0.00001224,-0.00002439,-0
 .00003263,0.00000873,-0.00004637,-0.00001844,0.00001562,-0.00004931,-0
 .00008820,-0.00001792,-0.00008674,-0.00007674,-0.00013614,-0.00011587,
 0.00004939,0.00000884,0.00007444,0.00003237,0.00000045,0.00001925,-0.0
 0003463,-0.00001548,0.00003519,0.00025786,0.00001849,0.00006263,0.0000
 4085,0.00003328,0.00005146,-0.00000362,0.00004175,0.00005444,0.0001108
 7,0.00031506,0.00016144,0.00013702,-0.00001696,-0.00008830,0.00029201,
 -0.00022752,0.00037602,-0.00003078,0.00006834,0.00009435,0.00004396,0.
 00006812,0.00021625,0.00024174,0.00033344,0.00018172,-0.00517754,0.003
 14822,-0.00269015,-0.00006345,0.00000756,0.00089665,0.00006592,-0.0000
 6121,-0.00029742,0.00002362,-0.00012452,-0.00040964,0.00000390,0.00000
 292,0.00000279,0.00000585,-0.00003306,0.00004887,0.00002469,-0.0000025
 8,-0.00001866,0.00000126,-0.00000175,-0.00000911,0.00000036,-0.0000008
 1,-0.00000278,0.00000151,-0.00000245,-0.00000585,-0.00001786,-0.000004
 53,0.00003316,-0.00000294,-0.00000255,-0.00001610,0.00003237,0.0000741
 5,0.00000857,-0.00003496,-0.00002604,-0.00002348,0.00000417,0.00000582
 ,0.00000636,0.06073554,0.54254759,0.00004954,-0.00004001,-0.00000673,-
 0.00046048,0.00002902,-0.00029165,-0.00015733,-0.00019640,0.00030346,0
 .01615193,-0.03055878,-0.08101025,0.00078775,0.00018264,-0.00046122,0.
 00030996,0.00004149,0.00005435,-0.00023379,-0.00035151,0.00034020,-0.0
 0035642,0.00049788,0.00047418,-0.00117462,-0.00034023,-0.00280222,-0.0
 2685143,0.01748115,-0.00163723,-0.00341426,0.00042977,-0.00121632,-0.0
 0009273,0.00001709,0.00001241,0.00000297,0.00000207,-0.00000406,0.0000
 0273,0.00000164,-0.00000372,0.00000958,0.00000790,-0.00000546,0.000003
 85,0.00000587,-0.00001274,-0.00000310,-0.00002510,-0.00004782,-0.00000
 242,-0.00000427,0.00001025,-0.00000219,-0.00000063,0.00000355,-0.00000
 253,-0.00000630,0.00000610,-0.00002169,0.00000052,0.00000283,-0.000005
 06,-0.00000179,0.00000540,-0.00001466,0.00001230,0.00002400,-0.0000166
 5,0.00008709,0.00006113,-0.00002046,-0.00002792,-0.00000017,-0.0000456
 8,0.00005954,-0.00001127,0.00005611,0.00005356,0.00005323,0.00008424,-
 0.00004788,0.00019575,-0.00012375,0.00020940,0.00018777,0.00019092,0.0
 0039664,0.00075706,-0.00056410,0.00087645,-0.00077511,0.00011694,-0.00
 030085,-0.00033703,0.00005301,-0.00006717,0.00006045,-0.00000066,-0.00
 000003,0.00000084,-0.00000844,-0.00000058,0.00000283,0.00000251,-0.000
 00578,-0.00000012,0.00000062,-0.00000072,-0.00000189,0.00000138,-0.000
 00076,-0.00000065,0.00000011,-0.00000086,-0.00000343,0.00000651,-0.000
 00453,0.00000175,0.00000030,-0.00000119,-0.00000471,-0.00000613,-0.000
 00255,0.00000829,0.00000368,-0.00000219,-0.00000422,-0.00000056,-0.000
 00034,0.00000204,0.02874003,0.01388942,0.59984777,-0.00000547,0.000002
 79,-0.00001616,-0.00000417,0.00000027,0.00000932,-0.00006116,-0.000140
 06,0.00000775,-0.00577985,0.03908362,-0.00422741,0.00017723,-0.0001037
 3,0.00006704,-0.00002338,-0.00000477,0.00002370,-0.00002924,-0.0000551
 2,0.00004257,0.00002343,-0.00005825,-0.00006109,0.00002714,0.00037781,
 0.00039534,0.00450190,0.00485953,0.00331660,-0.00056935,-0.00075777,-0
 .00058200,0.00009453,0.00012631,-0.00008360,-0.00000075,0.00000045,-0.
 00000047,-0.00000050,0.00000109,-0.00000101,0.00000122,0.00000352,-0.0
 0000087,-0.00000220,0.00000099,-0.00000222,-0.00000262,-0.00000133,-0.
 00000151,0.00000116,-0.00000119,0.00000195,0.00000069,-0.00000005,0.00
 000047,-0.00000198,-0.00000324,0.00000066,0.00000648,0.00000014,0.0000
 0155,0.00000147,-0.00000015,0.00000105,0.00000107,0.00000019,0.0000006
 0,0.00000786,0.00000359,0.00000192,0.00001573,-0.00001780,0.00000432,0
 .00000210,-0.00000248,0.00001042,0.00000526,0.00000143,0.00000199,-0.0
 0002613,0.00000902,-0.00001122,-0.00007789,-0.00020098,-0.00009113,0.0
 0033037,-0.00157909,-0.00003019,0.00003073,0.00001612,0.00007701,-0.00
 000650,-0.00000873,-0.00002290,0.00001248,-0.00002576,-0.00003668,0.00
 000002,-0.00000034,-0.00000011,-0.00000119,-0.00000225,0.00000089,0.00
 000058,-0.00000102,-0.00000025,0.,0.00000010,-0.00000009,-0.00000008,0
 .00000002,-0.00000003,-0.00000014,0.00000016,0.,-0.00000031,-0.0000000
 3,0.00000141,-0.00000014,0.00000001,0.00000011,0.00000037,0.00000233,0
 .00000042,-0.00000067,-0.00000028,-0.00000064,0.00000010,-0.00000011,0
 .00000008,-0.06797051,-0.07039058,0.00497789,0.07384183,0.00006883,-0.
 00001336,0.00009122,0.00020721,-0.00001756,0.00002870,0.00024056,0.000
 08424,-0.00014292,0.01304797,-0.02501631,0.00069241,0.00016937,-0.0000
 3205,0.00013928,0.00008079,0.00009595,0.00017116,-0.00015342,-0.000007
 85,-0.00011406,-0.00002740,0.00008253,-0.00002480,-0.00012149,0.000418
 18,0.00033970,-0.00326097,0.00109518,-0.00287539,0.00003947,-0.0000091
 0,0.00015635,0.00003974,-0.00023014,-0.00003658,0.00000963,0.00000365,
 0.00000416,0.00000681,-0.00000027,0.00000879,0.00000597,0.00000180,0.0
 0001007,0.00001713,0.00000673,0.00001436,0.00001484,0.00002733,0.00001
 708,-0.00000967,-0.00000420,-0.00001254,-0.00000649,-0.00000052,-0.000
 00372,0.00000542,-0.00000100,-0.00000684,-0.00005514,-0.00000321,-0.00
 001429,-0.00000778,-0.00000840,-0.00000908,-0.00000003,-0.00000869,-0.
 00000844,-0.00003115,-0.00005114,-0.00002660,-0.00002098,0.00002390,0.
 00001776,-0.00005369,0.00003847,-0.00006749,0.00000659,-0.00000813,-0.
 00001599,0.00001172,-0.00002321,-0.00001947,-0.00020992,0.00008933,0.0
 0005781,0.00109940,0.00035347,0.00110140,0.00007034,0.00000631,-0.0001
 1129,-0.00002335,0.00002439,-0.00000446,-0.00000720,0.00003982,0.00008
 364,-0.00000088,-0.00000117,-0.00000065,-0.00000278,0.00000457,-0.0000
 1051,-0.00000441,-0.00000130,0.00000416,-0.00000019,0.00000051,0.00000
 169,-0.00000012,0.00000010,0.00000062,-0.00000038,0.00000084,0.0000011
 8,0.00000374,0.00000055,-0.00000648,0.00000033,0.00000057,0.00000318,-
 0.00000700,-0.00001646,-0.00000068,0.00000815,0.00000552,0.00000448,-0
 .00000082,-0.00000150,-0.00000090,-0.06437606,-0.28373910,0.02354570,0
 .05893126,0.31718597,0.00003726,-0.00002902,0.00003553,0.00006515,-0.0
 0001265,0.00000520,0.00003862,0.00002801,-0.00009313,-0.00125765,-0.00
 427657,0.00290787,-0.00014240,-0.00015385,0.00010347,0.00007498,-0.000
 04811,0.00005634,-0.00001495,0.00006449,-0.00003355,-0.00004913,0.0000
 1023,-0.00002919,-0.00016400,-0.00003526,0.00015836,0.00053884,0.00223
 924,0.00026830,0.00029311,0.00012747,-0.00010466,-0.00008132,0.0001404
 8,-0.00000447,0.00000561,-0.00000015,0.00000208,0.00000312,-0.00000251
 ,0.00000374,0.00000045,-0.00000581,0.00000267,0.00001033,-0.00000328,0
 .00000890,0.00001112,0.00000024,0.00000078,-0.00000620,0.00000223,-0.0
 0000727,-0.00000311,0.00000076,-0.00000112,0.00000396,0.00000470,-0.00
 000184,-0.00001888,-0.00000131,-0.00000040,-0.00000624,0.00000121,-0.0
 0000531,-0.00000762,0.00000130,0.00000163,-0.00000857,-0.00000861,-0.0
 0000498,-0.00000734,-0.00000320,-0.00000196,-0.00004118,0.00003864,-0.
 00004041,-0.00000981,-0.00000225,0.00000081,-0.00001385,0.00000022,-0.
 00000744,0.00001623,-0.00003638,-0.00002925,-0.00001185,-0.00039025,-0
 .00004251,0.00007704,-0.00017736,0.00013235,0.00006322,-0.00006240,0.0
 0000513,0.00002581,-0.00004983,0.00002023,-0.00000053,0.00000058,0.000
 00003,0.00000021,0.00000454,-0.00000258,-0.00000243,0.00000064,0.00000
 155,0.00000009,-0.00000032,0.00000031,0.00000034,-0.00000025,-0.000000
 03,0.00000010,-0.00000028,-0.00000046,0.00000250,-0.00000050,-0.000002
 43,0.00000072,-0.00000014,-0.00000092,-0.00000329,-0.00000124,-0.00000
 069,0.00000071,0.00000034,0.00000049,-0.00000086,-0.00000005,-0.000000
 42,0.00581940,0.02380545,-0.05461371,-0.00733342,-0.02458750,0.0490936
 7,0.00002181,-0.00002304,0.00000605,-0.00019802,0.00003821,-0.00010085
 ,-0.00012576,-0.00000648,-0.00007550,-0.02875220,0.00689017,0.02466935
 ,0.00045003,0.00001329,-0.00000053,0.00021642,-0.00001898,0.00002131,-
 0.00009788,-0.00016000,0.00023502,-0.00010028,-0.00007325,0.00009150,-
 0.00015380,-0.00002739,-0.00045549,0.00323795,0.00013869,0.00455313,-0
 .00098577,-0.00024484,-0.00091292,-0.00020597,0.00033679,-0.00028491,-
 0.00000310,-0.00000051,-0.00000289,-0.00000088,0.00000055,-0.00000380,
 0.00000031,-0.00000068,-0.00000358,-0.00000289,0.00000148,-0.00000923,
 -0.00000462,-0.00001850,-0.00002623,0.00000329,-0.00000032,0.00000716,
 0.00000051,-0.00000105,0.00000326,0.00000255,0.00000071,0.00000244,-0.
 00000693,-0.00000002,0.00000638,0.00000103,-0.00000033,0.00000441,-0.0
 0000664,0.00000855,0.00001423,0.00001443,0.00004625,0.00002639,0.00003
 516,0.00001776,-0.00005075,-0.00002127,0.00002720,-0.00001730,0.000037
 10,0.00003362,-0.00000419,-0.00001527,0.00001407,0.00000727,0.00014499
 ,-0.00011515,-0.00008870,-0.00049716,-0.00033678,-0.00026378,-0.000121
 19,0.00068259,-0.00061483,0.00020991,-0.00009481,-0.00013950,0.0000189
 9,-0.00008945,-0.00006009,0.00000033,0.00000022,0.00000094,-0.00000078
 ,0.00000137,0.00000216,0.00000245,-0.00000228,-0.00000153,0.00000018,-
 0.00000024,-0.00000110,0.00000056,-0.00000026,-0.00000032,0.00000009,-
 0.00000037,-0.00000155,0.00000297,-0.00000256,0.00000136,-0.00000013,-
 0.00000026,-0.00000285,-0.00000343,0.00000315,0.00000514,-0.00000035,-
 0.00000273,-0.00000333,0.00000044,0.00000032,0.00000119,-0.10206235,-0
 .02218403,0.09579411,-0.00173368,-0.00290034,0.00785411,0.12023311,0.0
 0006983,-0.00004585,0.00007381,0.00014737,-0.00002281,0.00002912,0.000
 08243,0.00003372,-0.00002312,0.01827202,0.00192186,-0.01984663,-0.0000
 7969,-0.00014220,-0.00005746,0.00019157,-0.00007384,0.00002788,-0.0000
 2719,0.00009732,-0.00006959,-0.00003198,0.00006074,-0.00005587,0.00002
 913,-0.00009474,0.00023814,-0.00134284,0.00049213,-0.00106875,0.000501
 96,0.00023376,-0.00009924,-0.00039285,0.00011621,0.00010333,0.00000964
 ,0.00000067,0.00000323,0.00000609,-0.00000366,0.00000660,0.00000262,-0
 .00000846,0.00000466,0.00001741,-0.00000154,0.00001349,0.00001577,0.00
 000923,0.00000598,-0.00001064,0.00000167,-0.00001125,-0.00000608,0.000
 00059,-0.00000208,0.00000726,0.00000747,-0.00000301,-0.00004184,-0.000
 00267,-0.00000398,-0.00001062,-0.00000073,-0.00000747,-0.00000676,-0.0
 0000125,-0.00000061,-0.00001724,-0.00002924,-0.00001302,-0.00002282,0.
 00000159,0.00002668,-0.00006653,0.00005954,-0.00007979,-0.00000564,-0.
 00000095,0.00000964,0.00000336,-0.00001186,0.00000098,-0.00000931,0.00
 005193,0.00003012,0.00025889,-0.00039994,0.00038097,0.00031394,-0.0002
 6862,0.00055402,-0.00006160,-0.00023508,-0.00007387,0.00003383,-0.0000
 2866,0.00008060,-0.00000097,0.00000069,0.00000003,-0.00000097,0.000008
 50,-0.00000470,-0.00000421,0.00000109,0.00000286,0.00000014,-0.0000004
 7,0.00000066,0.00000068,-0.00000034,0.00000005,0.00000016,-0.00000064,
 -0.00000078,0.00000451,-0.00000064,-0.00000504,0.00000105,-0.00000038,
 -0.00000029,-0.00000620,-0.00000842,-0.00000038,0.00000394,0.00000215,
 0.00000221,-0.00000135,-0.00000041,-0.00000064,-0.02302529,-0.06015238
 ,0.04288564,-0.01382075,-0.00403622,0.02689654,0.01478807,0.05995088,0
 .00002244,-0.00000388,0.00005886,0.00017878,-0.00001677,0.00005578,0.0
 0012330,0.00003598,-0.00002871,0.00634139,-0.00398558,0.00502278,-0.00
 013023,-0.00027931,0.00044018,-0.00004078,0.00001290,0.00007450,-0.000
 07005,0.00008501,-0.00012068,-0.00002181,0.00004587,-0.00007862,0.0000
 1623,-0.00003808,0.00030195,-0.00177387,-0.00163852,-0.00037860,0.0007
 5431,0.00056776,0.00118663,0.00008090,-0.00016758,-0.00014166,0.000002
 60,-0.00000040,0.00000506,0.00000191,-0.00000234,0.00000729,-0.0000036
 9,-0.00000777,0.00000835,0.00000767,-0.00000193,0.00001630,0.00000777,
 0.00001607,0.00002641,-0.00000312,0.00000198,-0.00001407,-0.00000254,0
 .00000028,-0.00000397,0.00000663,0.00000620,-0.00000716,-0.00001965,-0
 .00000249,-0.00000759,-0.00000202,-0.00000290,-0.00000884,0.00000295,-
 0.00000734,-0.00001515,-0.00002345,-0.00003894,-0.00002594,-0.00002699
 ,0.00000091,0.00001150,-0.00001715,0.00001259,-0.00004065,-0.00001075,
 -0.00002135,-0.00002609,0.00001797,-0.00001232,-0.00003175,-0.00005257
 ,0.00002260,-0.00001879,-0.00008458,0.00017002,0.00022702,-0.00058054,
 0.00021524,-0.00033715,-0.00011030,0.00008406,0.00016757,-0.00003116,0
 .00007026,-0.00000234,0.00000016,-0.00000003,-0.00000064,0.00000400,0.
 00000535,-0.00000724,-0.00000297,0.00000269,0.00000059,-0.00000060,0.0
 0000062,0.00000192,-0.00000058,0.00000056,0.00000062,-0.00000034,0.000
 00069,0.00000197,0.00000011,0.00000196,-0.00000405,0.00000032,0.000001
 03,0.00000357,-0.00000087,-0.00000634,-0.00000375,0.00000255,0.0000028
 0,0.00000311,0.00000010,-0.00000026,-0.00000196,0.09912137,0.04006203,
 -0.24429043,0.00016575,-0.00000937,-0.00184339,-0.11508049,-0.04112448
 ,0.25899194,-0.00006360,0.00001989,-0.00009211,-0.00043321,0.00003906,
 -0.00015768,-0.00017443,-0.00011003,0.00022778,-0.02832331,-0.00409788
 ,-0.02515650,-0.00000321,0.00022879,-0.00027605,0.00004146,-0.00005386
 ,-0.00016109,0.00007671,-0.00014702,0.00025231,-0.00010753,0.00007991,
 0.00031350,-0.00036659,-0.00008783,-0.00163374,-0.00243044,0.00381927,
 0.00219709,-0.00057971,-0.00037477,0.00008542,-0.00005553,0.00024995,0
 .00001977,-0.00001216,-0.00000124,-0.00000614,-0.00000733,0.00000421,-
 0.00001053,-0.00000219,0.00000891,-0.00000987,-0.00002213,0.00000129,-
 0.00002389,-0.00002306,-0.00002919,-0.00003288,0.00001317,-0.00000166,
 0.00001974,0.00000747,-0.00000138,0.00000443,-0.00000670,-0.00000764,0
 .00000770,0.00004990,0.00000233,0.00001334,0.00001063,0.00000387,0.000
 01400,0.00000114,0.00000869,0.00001426,0.00002168,0.00008918,0.0000470
 2,0.00002285,-0.00001236,-0.00003186,0.00005505,-0.00004140,0.00007375
 ,0.00000823,0.00002876,0.00002050,0.00001665,0.00000846,0.00007152,0.0
 0004133,0.00003670,0.00002808,0.00011250,-0.00004012,0.00016064,0.0000
 6572,0.00017589,-0.00007996,0.00003403,-0.00008971,0.00000345,0.000014
 88,-0.00004890,-0.00008571,0.00000107,-0.00000034,0.00000046,0.0000003
 8,-0.00000880,0.00000939,0.00000730,-0.00000338,-0.00000521,0.00000014
 ,0.00000007,-0.00000200,-0.00000019,0.00000003,-0.00000043,0.00000011,
 0.00000011,-0.00000102,-0.00000299,-0.00000164,0.00000841,-0.00000097,
 -0.00000027,-0.00000305,0.00000487,0.00001341,0.00000453,-0.00000531,-
 0.00000518,-0.00000537,0.00000137,0.00000083,0.00000167,-0.13217128,-0
 .04525973,-0.11376752,-0.00278584,-0.00280359,-0.00575839,0.01046572,0
 .00423173,0.01123187,0.15650335,0.00001018,0.00000083,0.00002621,0.000
 18528,-0.00002143,0.00007506,0.00005829,0.00000616,-0.00005969,0.01882
 469,0.00443207,0.01760693,0.00000205,0.00002644,-0.00001023,-0.0000313
 4,0.00003764,0.00005111,0.00002838,0.00005576,-0.00008579,0.00012618,-
 0.00006875,-0.00014865,0.00041629,0.00041724,0.00082258,0.00231089,-0.
 00187024,-0.00046610,0.00018954,0.00031520,-0.00004594,0.00003492,-0.0
 0016717,0.00003165,0.00000110,0.00000017,0.00000128,0.00000103,-0.0000
 0076,0.00000211,-0.00000053,-0.00000308,0.00000245,0.00000307,0.000001
 05,0.00000482,0.00000364,0.00001349,0.00001491,-0.00000130,0.00000009,
 -0.00000413,-0.00000131,-0.00000019,-0.00000089,0.00000233,0.00000305,
 -0.00000223,-0.00001274,-0.00000088,-0.00000503,-0.00000109,-0.0000018
 4,-0.00000269,0.00000459,-0.00000441,-0.00000743,-0.00000245,-0.000039
 37,-0.00002043,-0.00000319,0.00001876,-0.00000795,-0.00000645,0.000004
 78,-0.00001678,-0.00000185,-0.00000715,-0.00000553,-0.00000663,-0.0000
 0866,-0.00004050,-0.00011832,-0.00000959,-0.00001908,0.00029956,0.0004
 4413,0.00019451,-0.00012844,0.00008211,-0.00005409,-0.00003369,0.00002
 140,-0.00000468,-0.00001374,0.00003674,0.00004965,0.,0.,-0.00000003,0.
 00000085,0.00000275,-0.00000223,-0.00000127,0.00000133,0.00000131,-0.0
 0000015,0.00000011,0.00000068,-0.00000005,0.00000022,0.00000019,-0.000
 00007,-0.00000006,0.00000068,0.00000001,0.00000119,-0.00000274,0.00000
 002,0.00000014,0.00000188,-0.00000098,-0.00000650,-0.00000116,0.000002
 47,0.00000213,0.00000257,0.00000005,-0.00000025,-0.00000040,-0.0533331
 7,-0.07587185,-0.06872443,-0.01624487,-0.00635901,-0.02347824,0.003261
 61,0.00252026,0.00594254,0.04417661,0.07599600,-0.00007598,0.00004770,
 -0.00008186,-0.00009106,-0.00000080,0.00000017,-0.00009361,-0.00004605
 ,0.00007444,0.00103967,0.00214220,0.00464012,-0.00024678,0.00002937,0.
 00003213,-0.00023024,-0.00000971,-0.00012400,0.00007622,0.00001814,-0.
 00001941,0.00007538,-0.00001048,0.00005141,0.00019862,0.00004174,-0.00
 014992,0.00145774,0.00007461,0.00149709,0.00038577,-0.00022814,0.00027
 179,0.00019807,-0.00002738,0.00009117,-0.00000860,-0.00000033,-0.00000
 414,-0.00000584,0.00000384,-0.00000756,-0.00000183,0.00000912,-0.00000
 615,-0.00001710,0.00000162,-0.00001549,-0.00001423,-0.00000523,-0.0000
 0540,0.00000958,-0.00000201,0.00001337,0.00000616,-0.00000069,0.000002
 58,-0.00000825,-0.00000772,0.00000465,0.00004526,0.00000323,0.00000523
 ,0.00000917,0.00000258,0.00000906,0.00000767,0.00000023,0.00000155,0.0
 0001899,0.00001945,0.00001083,0.00000884,-0.00000807,-0.00001042,0.000
 07454,-0.00007035,0.00008271,-0.00001371,-0.00001131,-0.00000085,0.000
 00366,0.00000833,-0.00000262,-0.00004529,0.00000150,0.00000579,0.00006
 779,0.00014180,-0.00002664,-0.00000596,-0.00026150,0.00011741,-0.00004
 278,0.00011981,0.00004236,-0.00002060,0.00002615,-0.00005321,0.0000007
 4,-0.00000065,0.00000007,0.00000070,-0.00000898,0.00000621,0.00000388,
 -0.00000121,-0.00000159,0.00000007,0.00000022,-0.00000102,-0.00000054,
 0.00000014,-0.00000019,0.00000008,0.00000033,0.00000041,-0.00000528,0.
 00000082,0.00000507,-0.00000085,0.00000004,-0.00000016,0.00000663,0.00
 000768,-0.00000034,-0.00000397,-0.00000177,-0.00000124,0.00000099,0.00
 000032,0.00000115,-0.12352558,-0.06317261,-0.21487348,0.00339217,0.001
 61519,0.00406269,-0.01510067,-0.00882517,-0.01917464,0.13247036,0.0683
 8398,0.22353083\\0.00000174,-0.00000769,0.00001646,-0.00000096,-0.0000
 0188,0.00000017,-0.00000004,-0.00000039,-0.00000045,0.00000504,0.00000
 273,0.00000161,-0.00000326,0.00000155,-0.00000153,-0.00000600,0.000007
 27,0.00000129,-0.00000063,-0.00000170,0.00000277,-0.00000077,0.0000005
 3,0.00000073,-0.00000215,0.00000262,-0.00000188,0.00000064,-0.00000029
 ,0.00000129,-0.00000325,0.00000786,-0.00000006,-0.00000094,0.00000265,
 -0.00000054,0.00000115,-0.00000557,-0.00000128,-0.00000151,-0.00000263
 ,0.00000030,-0.00000327,-0.00000081,0.00000143,0.00000140,-0.00000393,
 -0.00000011,-0.00000234,-0.00000259,0.00000034,0.00000094,-0.00000310,
 -0.00000112,-0.00000108,-0.00000331,-0.00000096,-0.00000081,-0.0000006
 0,0.00000028,-0.00000049,-0.00000206,-0.00000080,0.00000283,-0.0000016
 5,-0.00000093,0.00000253,-0.00000251,-0.00000037,0.00000140,-0.0000049
 6,-0.00000189,-0.00000024,-0.00000207,-0.00000035,0.00000571,0.0000094
 5,-0.00001474,-0.00000409,-0.00000068,-0.00000472,0.00000101,-0.000000
 56,0.00000073,-0.00000238,-0.00000031,0.00000074,0.00000141,0.00000245
 ,0.00000065,-0.00000345,0.00000699,0.00000036,0.00000153,0.00000567,-0
 .00000051,-0.00000010,0.00000564,0.00000079,-0.00000129,-0.00000422,-0
 .00000020,-0.00000384,0.00000157,0.00000264,0.00000182,-0.00000547,-0.
 00000197,0.00000249,-0.00000267,-0.00000106,-0.00000200,-0.00000427,0.
 00000050,-0.00000015,-0.00000034,0.00000049,-0.00000233,-0.00000185,-0
 .00000025,0.00000288,-0.00000057,-0.00000112,0.00000193,-0.00000092,-0
 .00000104,0.00000401,-0.00000285,-0.00000154,0.00000253,-0.00000595,-0
 .00000145,0.00000268,0.00000540,0.00000112,0.00000179,0.00000503,0.000
 00025,0.00000040,0.00000471,0.00000487,-0.00000051,0.00000629,0.000001
 06\\\@


 ... UNTIL SCIENCE IS MIXED WITH EMOTION AND APPEALS TO THE HEART AND
 IMAGINATION , IT IS LIKE DEAD INORGANIC MATTER; AND WHEN IT IS SO MIXED
 AND SO TRANSFORMED IT IS LITERATURE.

                                  -- JOHN BURROUGHS
 Job cpu time:  4 days 10 hours 51 minutes 56.4 seconds.
 File lengths (MBytes):  RWF=   3215 Int=      0 D2E=      0 Chk=     65 Scr=      1
 Normal termination of Gaussian 09 at Mon Nov 14 23:13:34 2011.
