 Entering Gaussian System, Link 0=g09
 Initial command:
 /opt/software/gaussian/g09/l1.exe /scratch/Gau-28983.inp -scrdir=/scratch/
 Entering Link 1 = /opt/software/gaussian/g09/l1.exe PID=     28985.
  
 Copyright (c) 1988,1990,1992,1993,1995,1998,2003,2009,2010,
            Gaussian, Inc.  All Rights Reserved.
  
 This is part of the Gaussian(R) 09 program.  It is based on
 the Gaussian(R) 03 system (copyright 2003, Gaussian, Inc.),
 the Gaussian(R) 98 system (copyright 1998, Gaussian, Inc.),
 the Gaussian(R) 94 system (copyright 1995, Gaussian, Inc.),
 the Gaussian 92(TM) system (copyright 1992, Gaussian, Inc.),
 the Gaussian 90(TM) system (copyright 1990, Gaussian, Inc.),
 the Gaussian 88(TM) system (copyright 1988, Gaussian, Inc.),
 the Gaussian 86(TM) system (copyright 1986, Carnegie Mellon
 University), and the Gaussian 82(TM) system (copyright 1983,
 Carnegie Mellon University). Gaussian is a federally registered
 trademark of Gaussian, Inc.
  
 This software contains proprietary and confidential information,
 including trade secrets, belonging to Gaussian, Inc.
  
 This software is provided under written license and may be
 used, copied, transmitted, or stored only in accord with that
 written license.
  
 The following legend is applicable only to US Government
 contracts under FAR:
  
                    RESTRICTED RIGHTS LEGEND
  
 Use, reproduction and disclosure by the US Government is
 subject to restrictions as set forth in subparagraphs (a)
 and (c) of the Commercial Computer Software - Restricted
 Rights clause in FAR 52.227-19.
  
 Gaussian, Inc.
 340 Quinnipiac St., Bldg. 40, Wallingford CT 06492
  
  
 ---------------------------------------------------------------
 Warning -- This program may not be used in any manner that
 competes with the business of Gaussian, Inc. or will provide
 assistance to any competitor of Gaussian, Inc.  The licensee
 of this program is prohibited from giving any competitor of
 Gaussian, Inc. access to this program.  By using this program,
 the user acknowledges that Gaussian, Inc. is engaged in the
 business of creating and licensing software in the field of
 computational chemistry and represents and warrants to the
 licensee that it is not a competitor of Gaussian, Inc. and that
 it will not use this program in any manner prohibited above.
 ---------------------------------------------------------------
  

 Cite this work as:
 Gaussian 09, Revision B.01,
 M. J. Frisch, G. W. Trucks, H. B. Schlegel, G. E. Scuseria, 
 M. A. Robb, J. R. Cheeseman, G. Scalmani, V. Barone, B. Mennucci, 
 G. A. Petersson, H. Nakatsuji, M. Caricato, X. Li, H. P. Hratchian, 
 A. F. Izmaylov, J. Bloino, G. Zheng, J. L. Sonnenberg, M. Hada, 
 M. Ehara, K. Toyota, R. Fukuda, J. Hasegawa, M. Ishida, T. Nakajima, 
 Y. Honda, O. Kitao, H. Nakai, T. Vreven, J. A. Montgomery, Jr., 
 J. E. Peralta, F. Ogliaro, M. Bearpark, J. J. Heyd, E. Brothers, 
 K. N. Kudin, V. N. Staroverov, T. Keith, R. Kobayashi, J. Normand, 
 K. Raghavachari, A. Rendell, J. C. Burant, S. S. Iyengar, J. Tomasi, 
 M. Cossi, N. Rega, J. M. Millam, M. Klene, J. E. Knox, J. B. Cross, 
 V. Bakken, C. Adamo, J. Jaramillo, R. Gomperts, R. E. Stratmann, 
 O. Yazyev, A. J. Austin, R. Cammi, C. Pomelli, J. W. Ochterski, 
 R. L. Martin, K. Morokuma, V. G. Zakrzewski, G. A. Voth, 
 P. Salvador, J. J. Dannenberg, S. Dapprich, A. D. Daniels, 
 O. Farkas, J. B. Foresman, J. V. Ortiz, J. Cioslowski, 
 and D. J. Fox, Gaussian, Inc., Wallingford CT, 2010.
 
 ******************************************
 Gaussian 09:  AM64L-G09RevB.01 12-Aug-2010
                 6-Nov-2011 
 ******************************************
 %mem=10GB
 %nprocshared=8
 Will use up to    8 processors via shared memory.
 Default route:  MaxDisk=200GB
 --------------------------------------------------
 # sp b3lyp/6-31+g(2df,p) nosymm scrf=(solvent=thf)
 --------------------------------------------------
 1/38=1/1;
 2/12=2,15=1,17=6,18=5,40=1/2;
 3/5=1,6=6,7=114,11=2,16=1,25=1,30=1,70=2201,72=20,74=-5/1,2,3;
 4//1;
 5/5=2,38=5,53=20/2;
 6/7=2,8=2,9=2,10=2,28=1/1;
 99/5=1,9=1/99;
 -----------------------------
 testing from levoglucosan.log
 -----------------------------
 Symbolic Z-matrix:
 Charge =  0 Multiplicity = 1
 8                     0.00965   0.23967   0.06947 
 8                    -0.0882   -0.12002   3.05064 
 8                     2.6318    0.16418   4.09851 
 8                     3.1672    0.27306   0.79709 
 8                     2.83567  -1.90013   0.24527 
 6                     2.27276  -0.59384   0.13529 
 6                     0.8883   -0.56597   0.83033 
 6                     1.07946   0.00058   2.23958 
 6                     2.32029  -0.57369   2.93243 
 6                     3.52177  -0.50382   1.95306 
 6                     3.82168  -1.84571   1.28026 
 1                    -0.74357   0.44691   0.63489 
 1                    -0.29216  -1.05906   3.14054 
 1                     1.79681   0.31376   4.55945 
 1                     2.19025  -0.29666  -0.91286 
 1                     0.52254  -1.60486   0.8825 
 1                     1.23936   1.07684   2.13408 
 1                     2.12596  -1.62905   3.19602 
 1                     4.37386  -0.03149   2.44108 
 1                     3.70575  -2.71007   1.94048 
 1                     4.82872  -1.85388   0.84618 
 
                          Input orientation:                          
 ---------------------------------------------------------------------
 Center     Atomic      Atomic             Coordinates (Angstroms)
 Number     Number       Type             X           Y           Z
 ---------------------------------------------------------------------
      1          8           0        0.009647    0.239672    0.069466
      2          8           0       -0.088199   -0.120015    3.050644
      3          8           0        2.631796    0.164180    4.098508
      4          8           0        3.167204    0.273057    0.797087
      5          8           0        2.835673   -1.900134    0.245265
      6          6           0        2.272759   -0.593841    0.135292
      7          6           0        0.888299   -0.565968    0.830327
      8          6           0        1.079462    0.000580    2.239585
      9          6           0        2.320287   -0.573692    2.932430
     10          6           0        3.521771   -0.503815    1.953064
     11          6           0        3.821676   -1.845706    1.280260
     12          1           0       -0.743567    0.446911    0.634890
     13          1           0       -0.292161   -1.059057    3.140540
     14          1           0        1.796808    0.313757    4.559452
     15          1           0        2.190247   -0.296660   -0.912856
     16          1           0        0.522538   -1.604855    0.882504
     17          1           0        1.239355    1.076844    2.134076
     18          1           0        2.125960   -1.629045    3.196015
     19          1           0        4.373860   -0.031490    2.441080
     20          1           0        3.705752   -2.710073    1.940481
     21          1           0        4.828715   -1.853881    0.846176
 ---------------------------------------------------------------------
                    Distance matrix (angstroms):
                    1          2          3          4          5
     1  O    0.000000
     2  O    3.004392   0.000000
     3  O    4.807759   2.928679   0.000000
     4  O    3.240480   3.978778   3.346326   0.000000
     5  O    3.549098   4.425834   4.376122   2.266535   0.000000
     6  C    2.412624   3.781258   4.050998   1.410502   1.426663
     7  C    1.414212   2.466218   3.775434   2.428678   2.431987
     8  C    2.431272   1.426812   2.427365   2.552197   3.267155
     9  C    3.767915   2.453692   1.414649   2.448253   3.040712
    10  C    4.054100   3.792607   2.416858   1.437195   2.310198
    11  C    4.510697   4.625948   3.660325   2.269570   1.430517
    12  H    0.964357   2.566472   4.844550   3.917992   4.297835
    13  H    3.348026   0.965133   3.311123   4.385602   4.344350
    14  H    4.833157   2.453143   0.965426   4.004377   4.959109
    15  H    2.451046   4.575134   5.051842   2.050104   2.080612
    16  H    2.079992   2.697884   4.233336   3.244705   2.417407
    17  H    2.544730   2.008723   2.575042   2.479963   3.870173
    18  H    4.212623   2.683431   2.070270   3.233734   3.046983
    19  H    4.974378   4.504373   2.412497   2.061912   3.267943
    20  H    5.085556   4.725984   3.751239   3.239822   2.070458
    21  H    5.311277   5.660567   4.413240   2.699425   2.082174
                    6          7          8          9         10
     6  C    0.000000
     7  C    1.549381   0.000000
     8  C    2.491053   1.530859   0.000000
     9  C    2.797614   2.543518   1.532798   0.000000
    10  C    2.207358   2.863490   2.510255   1.551646   0.000000
    11  C    2.297229   3.231852   3.442211   2.569407   1.530777
    12  H    3.229704   1.930571   2.469351   3.963272   4.564490
    13  H    3.978286   2.640778   1.953433   2.665291   4.032923
    14  H    4.541305   3.937725   2.448356   1.925824   3.230662
    15  H    1.092584   2.192324   3.355604   3.857445   3.166918
    16  H    2.154936   1.102629   2.174685   2.915029   3.369538
    17  H    2.802543   2.126460   1.093180   2.128392   2.782206
    18  H    3.234381   2.873746   2.159999   1.104993   2.181595
    19  H    3.169783   3.876768   3.300710   2.180039   1.089636
    20  H    3.128996   3.710481   3.786093   2.732691   2.213952
    21  H    2.937000   4.145582   4.408799   3.504790   2.180821
                   11         12         13         14         15
    11  C    0.000000
    12  H    5.149178   0.000000
    13  H    4.582915   2.958038   0.000000
    14  H    4.417745   4.676903   2.874321   0.000000
    15  H    3.141793   3.399365   4.813898   5.520286   0.000000
    16  H    3.331746   2.423650   2.461779   4.338754   2.777759
    17  H    3.992328   2.564440   2.814353   2.602980   3.474839
    18  H    2.567589   4.370714   2.485010   2.396201   4.319977
    19  H    2.223464   5.447866   4.828757   3.353788   4.010906
    20  H    1.093828   5.609595   4.488798   4.432451   4.032722
    21  H    1.096642   6.032297   5.667382   5.261134   3.532796
                   16         17         18         19         20
    16  H    0.000000
    17  H    3.044958   0.000000
    18  H    2.814939   3.039016   0.000000
    19  H    4.442670   3.338829   2.859224   0.000000
    20  H    3.531809   4.523421   2.289264   2.805668   0.000000
    21  H    4.313525   4.809505   3.588479   2.464086   1.786509
                   21
    21  H    0.000000
 Symmetry turned off by external request.
 Stoichiometry    C6H10O5
 Framework group  C1[X(C6H10O5)]
 Deg. of freedom    57
 Full point group                 C1      NOp   1
 Rotational constants (GHZ):      1.4200839      1.2600097      0.8031450
 Standard basis: 6-31+G(2df,p) (6D, 7F)
 Integral buffers will be    131072 words long.
 Raffenetti 2 integral format.
 Two-electron integral symmetry is turned off.
   402 basis functions,   598 primitive gaussians,   435 cartesian basis functions
    43 alpha electrons       43 beta electrons
       nuclear repulsion energy       719.1020416415 Hartrees.
 NAtoms=   21 NActive=   21 NUniq=   21 SFac= 1.00D+00 NAtFMM=   50 NAOKFM=F Big=F
 ------------------------------------------------------------------------------
 Polarizable Continuum Model (PCM)
 =================================
 Model                : PCM.
 Atomic radii         : UFF (Universal Force Field).
 Polarization charges : Total charges.
 Charge compensation  : None.
 Solution method      : Matrix inversion.
 Cavity type          : Scaled VdW (van der Waals Surface) (Alpha=1.100).
 Cavity algorithm     : GePol (No added spheres)
                        Default sphere list used, NSphG=   21.
                        Lebedev-Laikov grids with approx.  5.0 points / Ang**2.
                        Smoothing algorithm: Karplus/York (Gamma=1.0000).
                        Polarization charges: spherical gaussians, with
                                              point-specific exponents (IZeta= 3).
                        Self-potential: point-specific (ISelfS= 7).
                        Self-field    : sphere-specific E.n sum rule (ISelfD= 2).
 Solvent              : TetraHydroFuran, Eps=   7.425700 Eps(inf)=   1.974025
 ------------------------------------------------------------------------------
 One-electron integrals computed using PRISM.
 NBasis=   402 RedAO= T  NBF=   402
 NBsUse=   402 1.00D-06 NBFU=   402
 Harris functional with IExCor=  402 diagonalized for initial guess.
 ExpMin= 4.38D-02 ExpMax= 5.48D+03 ExpMxC= 8.25D+02 IAcc=2 IRadAn=         0 AccDes= 0.00D+00
 HarFok:  IExCor=  402 AccDes= 0.00D+00 IRadAn=         0 IDoV= 1
 ScaDFX=  1.000000  1.000000  1.000000  1.000000
 FoFCou: FMM=F IPFlag=           0 FMFlag=      100000 FMFlg1=           0
         NFxFlg=           0 DoJE=T BraDBF=F KetDBF=T FulRan=T
         Omega=  0.000000  0.000000  1.000000  0.000000  0.000000 ICntrl=     500 IOpCl=  0
         NMat0=    1 NMatS0=    1 NMatT0=    0 NMatD0=    1 NMtDS0=    0 NMtDT0=    0
         I1Cent=           4 NGrid=           0.
 Symmetry not used in FoFCou.
 Requested convergence on RMS density matrix=1.00D-08 within 128 cycles.
 Requested convergence on MAX density matrix=1.00D-06.
 Requested convergence on             energy=1.00D-06.
 No special actions if energy rises.
 Error on total polarization charges =  0.01184
 SCF Done:  E(RB3LYP) =  -610.819730927     A.U. after   12 cycles
             Convg  =    0.3748D-08             -V/T =  2.0067

 **********************************************************************

            Population analysis using the SCF density.

 **********************************************************************

 Alpha  occ. eigenvalues --  -19.17732 -19.17672 -19.16906 -19.16647 -19.16590
 Alpha  occ. eigenvalues --  -10.29494 -10.25534 -10.25369 -10.25057 -10.24954
 Alpha  occ. eigenvalues --  -10.24472  -1.11705  -1.06357  -1.04677  -1.03485
 Alpha  occ. eigenvalues --   -1.01555  -0.80001  -0.79137  -0.68166  -0.67368
 Alpha  occ. eigenvalues --   -0.62865  -0.59458  -0.56727  -0.53371  -0.53130
 Alpha  occ. eigenvalues --   -0.51600  -0.49943  -0.48818  -0.45263  -0.44217
 Alpha  occ. eigenvalues --   -0.43203  -0.42497  -0.41775  -0.39807  -0.36913
 Alpha  occ. eigenvalues --   -0.36422  -0.35778  -0.35629  -0.32422  -0.31208
 Alpha  occ. eigenvalues --   -0.29099  -0.28284  -0.27056
 Alpha virt. eigenvalues --   -0.00343   0.00825   0.01673   0.01856   0.03191
 Alpha virt. eigenvalues --    0.03921   0.04168   0.04834   0.05175   0.07189
 Alpha virt. eigenvalues --    0.07640   0.08503   0.09353   0.09518   0.10899
 Alpha virt. eigenvalues --    0.11209   0.12097   0.12413   0.13539   0.14119
 Alpha virt. eigenvalues --    0.14301   0.14465   0.15206   0.15633   0.15818
 Alpha virt. eigenvalues --    0.17218   0.17333   0.18150   0.19366   0.19961
 Alpha virt. eigenvalues --    0.20955   0.21721   0.21956   0.22785   0.23662
 Alpha virt. eigenvalues --    0.23826   0.24657   0.24716   0.25618   0.25769
 Alpha virt. eigenvalues --    0.26840   0.27353   0.27737   0.28913   0.29580
 Alpha virt. eigenvalues --    0.30475   0.30517   0.31210   0.32079   0.32518
 Alpha virt. eigenvalues --    0.32664   0.33756   0.34623   0.35010   0.35405
 Alpha virt. eigenvalues --    0.36111   0.36195   0.37768   0.38233   0.39334
 Alpha virt. eigenvalues --    0.39983   0.41101   0.41932   0.42257   0.43771
 Alpha virt. eigenvalues --    0.44917   0.54252   0.56969   0.57875   0.59862
 Alpha virt. eigenvalues --    0.60956   0.62147   0.63920   0.64550   0.66141
 Alpha virt. eigenvalues --    0.67548   0.69014   0.70225   0.70668   0.71902
 Alpha virt. eigenvalues --    0.73564   0.74561   0.76694   0.79405   0.81205
 Alpha virt. eigenvalues --    0.84255   0.85015   0.86563   0.87417   0.88546
 Alpha virt. eigenvalues --    0.89083   0.90279   0.91094   0.92108   0.94111
 Alpha virt. eigenvalues --    0.94851   0.95834   0.98663   0.99714   1.01854
 Alpha virt. eigenvalues --    1.02117   1.04679   1.06180   1.08662   1.10336
 Alpha virt. eigenvalues --    1.10533   1.11568   1.13051   1.13813   1.14418
 Alpha virt. eigenvalues --    1.15422   1.16998   1.17785   1.19646   1.20214
 Alpha virt. eigenvalues --    1.21026   1.23543   1.24283   1.25877   1.26508
 Alpha virt. eigenvalues --    1.27593   1.28683   1.29639   1.31631   1.31804
 Alpha virt. eigenvalues --    1.33528   1.35529   1.35829   1.39154   1.40343
 Alpha virt. eigenvalues --    1.40543   1.42135   1.43303   1.45245   1.47275
 Alpha virt. eigenvalues --    1.48028   1.51445   1.52327   1.54472   1.55187
 Alpha virt. eigenvalues --    1.56743   1.57497   1.60524   1.61578   1.63278
 Alpha virt. eigenvalues --    1.66184   1.68554   1.69082   1.70352   1.72097
 Alpha virt. eigenvalues --    1.73975   1.76332   1.78014   1.79721   1.81632
 Alpha virt. eigenvalues --    1.82824   1.83844   1.84800   1.89895   1.90396
 Alpha virt. eigenvalues --    1.94405   1.94962   1.96515   1.99798   2.05846
 Alpha virt. eigenvalues --    2.06371   2.08501   2.12243   2.13080   2.17492
 Alpha virt. eigenvalues --    2.19484   2.24901   2.26059   2.31143   2.34809
 Alpha virt. eigenvalues --    2.36430   2.41672   2.42609   2.44084   2.47863
 Alpha virt. eigenvalues --    2.51084   2.52890   2.55666   2.58072   2.59865
 Alpha virt. eigenvalues --    2.61633   2.61818   2.63542   2.70279   2.71820
 Alpha virt. eigenvalues --    2.75161   2.77315   2.79537   2.81848   2.86491
 Alpha virt. eigenvalues --    2.86899   2.88324   2.90238   2.92832   2.94998
 Alpha virt. eigenvalues --    2.95472   3.01143   3.02426   3.04634   3.06209
 Alpha virt. eigenvalues --    3.06387   3.07942   3.09501   3.11951   3.16621
 Alpha virt. eigenvalues --    3.17143   3.18858   3.21600   3.27165   3.28646
 Alpha virt. eigenvalues --    3.31926   3.32919   3.34218   3.35748   3.36429
 Alpha virt. eigenvalues --    3.40777   3.45043   3.46156   3.50709   3.52056
 Alpha virt. eigenvalues --    3.54870   3.58279   3.59988   3.63462   3.64350
 Alpha virt. eigenvalues --    3.65619   3.67747   3.71288   3.74173   3.75718
 Alpha virt. eigenvalues --    3.80535   3.83717   3.88426   3.96038   3.97240
 Alpha virt. eigenvalues --    4.00231   4.05698   4.07486   4.09586   4.13767
 Alpha virt. eigenvalues --    4.18158   4.18868   4.24799   4.27663   4.28975
 Alpha virt. eigenvalues --    4.31438   4.35404   4.35932   4.37573   4.38176
 Alpha virt. eigenvalues --    4.39452   4.41855   4.42730   4.43812   4.44575
 Alpha virt. eigenvalues --    4.48304   4.50128   4.51146   4.53549   4.54097
 Alpha virt. eigenvalues --    4.54911   4.55791   4.59944   4.60133   4.61639
 Alpha virt. eigenvalues --    4.62349   4.63499   4.64152   4.65982   4.66264
 Alpha virt. eigenvalues --    4.67520   4.68901   4.72876   4.74267   4.74942
 Alpha virt. eigenvalues --    4.75612   4.78644   4.79028   4.80467   4.82845
 Alpha virt. eigenvalues --    4.84028   4.85836   4.86866   4.91655   4.92387
 Alpha virt. eigenvalues --    4.94802   4.97831   4.99041   5.04744   5.05390
 Alpha virt. eigenvalues --    5.08493   5.11929   5.16422   5.19862   5.22747
 Alpha virt. eigenvalues --    5.24957   5.27322   5.30857   5.31391   5.34018
 Alpha virt. eigenvalues --    5.35629   5.39906   5.42252   5.44096   5.45347
 Alpha virt. eigenvalues --    5.46582   5.47462   5.48558   5.56213   5.56367
 Alpha virt. eigenvalues --    5.59268   5.60718   5.62654   5.67487   5.70649
 Alpha virt. eigenvalues --    5.76542   5.78988   5.82410   5.84767   5.87805
 Alpha virt. eigenvalues --    5.93161   5.93843   5.95452   5.98131   5.99750
 Alpha virt. eigenvalues --    6.01562   6.03101   6.05329   6.07386   6.13019
 Alpha virt. eigenvalues --    6.16736   6.18233   6.22266   6.23817   6.25893
 Alpha virt. eigenvalues --    6.52597   6.86843   7.04561   7.09571   7.22972
 Alpha virt. eigenvalues --    7.24517   7.78747   7.97443  11.94372  12.10390
 Alpha virt. eigenvalues --   12.45978  12.72665  12.99460  13.08793  13.41464
 Alpha virt. eigenvalues --   13.48649  13.65558  13.82178  14.18654
          Condensed to atoms (all electrons):
              1          2          3          4          5          6
     1  O    8.082130  -0.015134  -0.000283   0.004128   0.003060  -0.113776
     2  O   -0.015134   8.155999  -0.017786   0.003528  -0.001215   0.003358
     3  O   -0.000283  -0.017786   8.080861   0.000814  -0.000296   0.009786
     4  O    0.004128   0.003528   0.000814   7.842133  -0.028230   0.256867
     5  O    0.003060  -0.001215  -0.000296  -0.028230   7.939320   0.245044
     6  C   -0.113776   0.003358   0.009786   0.256867   0.245044   5.984844
     7  C    0.250908   0.033473  -0.009696  -0.056051  -0.093228  -0.006916
     8  C    0.010226   0.086690   0.017731  -0.057043  -0.025493  -0.101558
     9  C    0.000875   0.043744   0.247940  -0.045430   0.026422   0.157542
    10  C    0.000134  -0.004624  -0.091804   0.306473  -0.004313  -0.402381
    11  C    0.003863  -0.002988   0.001089  -0.074334   0.175875  -0.239757
    12  H    0.273797   0.011481   0.000080  -0.001165  -0.000429   0.026037
    13  H   -0.000232   0.262744   0.000390   0.000055  -0.000395   0.003514
    14  H    0.000070   0.012010   0.273260  -0.000969   0.000088  -0.003622
    15  H    0.003408  -0.000334  -0.000076  -0.036593  -0.040324   0.367888
    16  H   -0.037393  -0.007717   0.000359   0.006436  -0.004669  -0.085685
    17  H    0.002699  -0.048212   0.003667   0.000914   0.000698   0.000706
    18  H    0.000365  -0.005667  -0.037734   0.005872   0.000057   0.004668
    19  H   -0.000064  -0.000333   0.001896  -0.031609   0.003992   0.023340
    20  H   -0.000032  -0.000030   0.000386   0.003052  -0.042397   0.016011
    21  H    0.000066  -0.000032   0.000034   0.001503  -0.047009  -0.003980
              7          8          9         10         11         12
     1  O    0.250908   0.010226   0.000875   0.000134   0.003863   0.273797
     2  O    0.033473   0.086690   0.043744  -0.004624  -0.002988   0.011481
     3  O   -0.009696   0.017731   0.247940  -0.091804   0.001089   0.000080
     4  O   -0.056051  -0.057043  -0.045430   0.306473  -0.074334  -0.001165
     5  O   -0.093228  -0.025493   0.026422  -0.004313   0.175875  -0.000429
     6  C   -0.006916  -0.101558   0.157542  -0.402381  -0.239757   0.026037
     7  C    5.530970   0.052875  -0.161485   0.173544   0.049465  -0.026672
     8  C    0.052875   5.664886   0.066189  -0.109707   0.040126  -0.028306
     9  C   -0.161485   0.066189   5.418568   0.127480  -0.037404   0.004799
    10  C    0.173544  -0.109707   0.127480   5.552430   0.043174  -0.001858
    11  C    0.049465   0.040126  -0.037404   0.043174   5.613354  -0.000016
    12  H   -0.026672  -0.028306   0.004799  -0.001858  -0.000016   0.387240
    13  H   -0.036291   0.052307  -0.042499   0.003363   0.002026  -0.000274
    14  H    0.008665  -0.032634  -0.019271   0.019011   0.000113  -0.000005
    15  H   -0.031165   0.007326   0.009761  -0.008639   0.016842  -0.000402
    16  H    0.375647   0.032256  -0.033544  -0.002068   0.021674  -0.001705
    17  H   -0.088069   0.474159  -0.108294   0.009719   0.018560  -0.000056
    18  H   -0.019212   0.013311   0.350906  -0.072808   0.015362  -0.000009
    19  H   -0.001254   0.010294  -0.025453   0.335797  -0.014139   0.000000
    20  H    0.005843   0.000205   0.008821  -0.068529   0.409940   0.000000
    21  H    0.000118   0.004246   0.004417  -0.074453   0.442145   0.000000
             13         14         15         16         17         18
     1  O   -0.000232   0.000070   0.003408  -0.037393   0.002699   0.000365
     2  O    0.262744   0.012010  -0.000334  -0.007717  -0.048212  -0.005667
     3  O    0.000390   0.273260  -0.000076   0.000359   0.003667  -0.037734
     4  O    0.000055  -0.000969  -0.036593   0.006436   0.000914   0.005872
     5  O   -0.000395   0.000088  -0.040324  -0.004669   0.000698   0.000057
     6  C    0.003514  -0.003622   0.367888  -0.085685   0.000706   0.004668
     7  C   -0.036291   0.008665  -0.031165   0.375647  -0.088069  -0.019212
     8  C    0.052307  -0.032634   0.007326   0.032256   0.474159   0.013311
     9  C   -0.042499  -0.019271   0.009761  -0.033544  -0.108294   0.350906
    10  C    0.003363   0.019011  -0.008639  -0.002068   0.009719  -0.072808
    11  C    0.002026   0.000113   0.016842   0.021674   0.018560   0.015362
    12  H   -0.000274  -0.000005  -0.000402  -0.001705  -0.000056  -0.000009
    13  H    0.389256  -0.000367  -0.000006   0.003376   0.006380   0.003066
    14  H   -0.000367   0.388333   0.000000  -0.000015  -0.000131  -0.001685
    15  H   -0.000006   0.000000   0.560628   0.001952  -0.000183   0.000006
    16  H    0.003376  -0.000015   0.001952   0.577541   0.004463   0.002103
    17  H    0.006380  -0.000131  -0.000183   0.004463   0.550269   0.004731
    18  H    0.003066  -0.001685   0.000006   0.002103   0.004731   0.594616
    19  H   -0.000003  -0.000143  -0.000167   0.000008  -0.000093   0.003193
    20  H    0.000003  -0.000002  -0.000231  -0.000072   0.000001   0.001535
    21  H    0.000000   0.000005   0.000506  -0.000015   0.000002   0.000143
             19         20         21
     1  O   -0.000064  -0.000032   0.000066
     2  O   -0.000333  -0.000030  -0.000032
     3  O    0.001896   0.000386   0.000034
     4  O   -0.031609   0.003052   0.001503
     5  O    0.003992  -0.042397  -0.047009
     6  C    0.023340   0.016011  -0.003980
     7  C   -0.001254   0.005843   0.000118
     8  C    0.010294   0.000205   0.004246
     9  C   -0.025453   0.008821   0.004417
    10  C    0.335797  -0.068529  -0.074453
    11  C   -0.014139   0.409940   0.442145
    12  H    0.000000   0.000000   0.000000
    13  H   -0.000003   0.000003   0.000000
    14  H   -0.000143  -0.000002   0.000005
    15  H   -0.000167  -0.000231   0.000506
    16  H    0.000008  -0.000072  -0.000015
    17  H   -0.000093   0.000001   0.000002
    18  H    0.003193   0.001535   0.000143
    19  H    0.542999   0.002852  -0.002673
    20  H    0.002852   0.540689  -0.042379
    21  H   -0.002673  -0.042379   0.557934
 Mulliken atomic charges:
              1
     1  O   -0.468815
     2  O   -0.508957
     3  O   -0.480618
     4  O   -0.100352
     5  O   -0.106558
     6  C   -0.141929
     7  C    0.048531
     8  C   -0.178085
     9  C    0.005915
    10  C    0.270059
    11  C   -0.484973
    12  H    0.357462
    13  H    0.353589
    14  H    0.357290
    15  H    0.149802
    16  H    0.147068
    17  H    0.168070
    18  H    0.137181
    19  H    0.151562
    20  H    0.164334
    21  H    0.159424
 Sum of Mulliken atomic charges =   0.00000
 Mulliken charges with hydrogens summed into heavy atoms:
              1
     1  O   -0.111353
     2  O   -0.155367
     3  O   -0.123328
     4  O   -0.100352
     5  O   -0.106558
     6  C    0.007873
     7  C    0.195599
     8  C   -0.010016
     9  C    0.143096
    10  C    0.421621
    11  C   -0.161216
 Sum of Mulliken charges with hydrogens summed into heavy atoms =   0.00000
 Electronic spatial extent (au):  <R**2>=           3629.5740
 Charge=              0.0000 electrons
 Dipole moment (field-independent basis, Debye):
    X=             -0.9131    Y=             -2.6194    Z=              2.2571  Tot=              3.5762
 Quadrupole moment (field-independent basis, Debye-Ang):
   XX=            -64.4707   YY=            -64.6033   ZZ=            -63.9978
   XY=             -4.8044   XZ=             -0.5879   YZ=             -9.1532
 Traceless Quadrupole moment (field-independent basis, Debye-Ang):
   XX=             -0.1134   YY=             -0.2461   ZZ=              0.3595
   XY=             -4.8044   XZ=             -0.5879   YZ=             -9.1532
 Octapole moment (field-independent basis, Debye-Ang**2):
  XXX=           -380.4964  YYY=            100.5841  ZZZ=           -326.2469  XYY=           -135.5805
  XXY=             10.3197  XXZ=           -109.0544  XZZ=           -149.1234  YZZ=             10.5672
  YYZ=            -90.4237  XYZ=            -15.5648
 Hexadecapole moment (field-independent basis, Debye-Ang**3):
 XXXX=          -2240.5685 YYYY=           -417.4783 ZZZZ=          -1815.4615 XXXY=            191.5112
 XXXZ=           -625.6402 YYYX=            299.2918 YYYZ=             80.8714 ZZZX=           -771.1569
 ZZZY=             55.4755 XXYY=           -459.8582 XXZZ=           -790.8287 YYZZ=           -329.5148
 XXYZ=            -27.4106 YYXZ=           -190.6038 ZZXY=             74.5778
 N-N= 7.191020416415D+02 E-N=-2.869436533718D+03  KE= 6.067658039514D+02
 1\1\GINC-NODE013\SP\RB3LYP\6-31+G(2df,p)\C6H10O5\HGO357\06-Nov-2011\0\
 \# sp b3lyp/6-31+g(2df,p) nosymm scrf=(solvent=thf)\\testing from levo
 glucosan.log\\0,1\O,0,0.009647,0.239672,0.069466\O,0,-0.088199,-0.1200
 15,3.050644\O,0,2.631796,0.16418,4.098508\O,0,3.167204,0.273057,0.7970
 87\O,0,2.835673,-1.900134,0.245265\C,0,2.272759,-0.593841,0.135292\C,0
 ,0.888299,-0.565968,0.830327\C,0,1.079462,0.00058,2.239585\C,0,2.32028
 7,-0.573692,2.93243\C,0,3.521771,-0.503815,1.953064\C,0,3.821676,-1.84
 5706,1.28026\H,0,-0.743567,0.446911,0.63489\H,0,-0.292161,-1.059057,3.
 14054\H,0,1.796808,0.313757,4.559452\H,0,2.190247,-0.29666,-0.912856\H
 ,0,0.522538,-1.604855,0.882504\H,0,1.239355,1.076844,2.134076\H,0,2.12
 596,-1.629045,3.196015\H,0,4.37386,-0.03149,2.44108\H,0,3.705752,-2.71
 0073,1.940481\H,0,4.828715,-1.853881,0.846176\\Version=AM64L-G09RevB.0
 1\HF=-610.8197309\RMSD=3.748e-09\Dipole=-0.3592341,-1.0305393,0.887994
 2\Quadrupole=-0.0843279,-0.18294,0.2672679,-3.5719638,-0.4370834,-6.80
 51588\PG=C01 [X(C6H10O5)]\\@


 THERE IS AN OLD, OLD RECIPE IN MAINE FOR STEWING COOT. PLACE THE
 BIRD IN A KETTLE OF WATER WITH A RED BUILDING BRICK FREE OF MORTAR AND
 BLEMISHES. PARBOIL THE COOT AND BRICK TOGETHER FOR THREE HOURS.
 POUR OFF THE WATER, REFILL THE KETTLE, AND AGAIN PARBOIL FOR THREE HOURS.
 ONCE AGAIN POUR OFF THE WATER, FOR THE LAST TIME ADD FRESH WATER,
 AND LET THE COOT AND BRICK SIMMER TOGETHER OVERNIGHT. IN THE MORNING,
 THROW AWAY THE COOT AND EAT THE BRICK.
 Job cpu time:  0 days  0 hours 49 minutes 34.3 seconds.
 File lengths (MBytes):  RWF=    128 Int=      0 D2E=      0 Chk=      7 Scr=      1
 Normal termination of Gaussian 09 at Sun Nov  6 00:43:16 2011.
