 Entering Gaussian System, Link 0=g09
 Initial command:
 /projects/nrel/apps/gaussian/g09/B.01/g09/l1.exe /scratch/hmayes/bglc_03b_110/Gau-22396.inp -scrdir=/scratch/hmayes/bglc_03b_110/
 Default is to use a total of   8 processors:
                                8 via shared-memory
                                1 via Linda
 Entering Link 1 = /projects/nrel/apps/gaussian/g09/B.01/g09/l1.exe PID=     22397.
  
 Copyright (c) 1988,1990,1992,1993,1995,1998,2003,2009,2010,
            Gaussian, Inc.  All Rights Reserved.
  
 This is part of the Gaussian(R) 09 program.  It is based on
 the Gaussian(R) 03 system (copyright 2003, Gaussian, Inc.),
 the Gaussian(R) 98 system (copyright 1998, Gaussian, Inc.),
 the Gaussian(R) 94 system (copyright 1995, Gaussian, Inc.),
 the Gaussian 92(TM) system (copyright 1992, Gaussian, Inc.),
 the Gaussian 90(TM) system (copyright 1990, Gaussian, Inc.),
 the Gaussian 88(TM) system (copyright 1988, Gaussian, Inc.),
 the Gaussian 86(TM) system (copyright 1986, Carnegie Mellon
 University), and the Gaussian 82(TM) system (copyright 1983,
 Carnegie Mellon University). Gaussian is a federally registered
 trademark of Gaussian, Inc.
  
 This software contains proprietary and confidential information,
 including trade secrets, belonging to Gaussian, Inc.
  
 This software is provided under written license and may be
 used, copied, transmitted, or stored only in accord with that
 written license.
  
 The following legend is applicable only to US Government
 contracts under FAR:
  
                    RESTRICTED RIGHTS LEGEND
  
 Use, reproduction and disclosure by the US Government is
 subject to restrictions as set forth in subparagraphs (a)
 and (c) of the Commercial Computer Software - Restricted
 Rights clause in FAR 52.227-19.
  
 Gaussian, Inc.
 340 Quinnipiac St., Bldg. 40, Wallingford CT 06492
  
  
 ---------------------------------------------------------------
 Warning -- This program may not be used in any manner that
 competes with the business of Gaussian, Inc. or will provide
 assistance to any competitor of Gaussian, Inc.  The licensee
 of this program is prohibited from giving any competitor of
 Gaussian, Inc. access to this program.  By using this program,
 the user acknowledges that Gaussian, Inc. is engaged in the
 business of creating and licensing software in the field of
 computational chemistry and represents and warrants to the
 licensee that it is not a competitor of Gaussian, Inc. and that
 it will not use this program in any manner prohibited above.
 ---------------------------------------------------------------
  

 Cite this work as:
 Gaussian 09, Revision B.01,
 M. J. Frisch, G. W. Trucks, H. B. Schlegel, G. E. Scuseria, 
 M. A. Robb, J. R. Cheeseman, G. Scalmani, V. Barone, B. Mennucci, 
 G. A. Petersson, H. Nakatsuji, M. Caricato, X. Li, H. P. Hratchian, 
 A. F. Izmaylov, J. Bloino, G. Zheng, J. L. Sonnenberg, M. Hada, 
 M. Ehara, K. Toyota, R. Fukuda, J. Hasegawa, M. Ishida, T. Nakajima, 
 Y. Honda, O. Kitao, H. Nakai, T. Vreven, J. A. Montgomery, Jr., 
 J. E. Peralta, F. Ogliaro, M. Bearpark, J. J. Heyd, E. Brothers, 
 K. N. Kudin, V. N. Staroverov, T. Keith, R. Kobayashi, J. Normand, 
 K. Raghavachari, A. Rendell, J. C. Burant, S. S. Iyengar, J. Tomasi, 
 M. Cossi, N. Rega, J. M. Millam, M. Klene, J. E. Knox, J. B. Cross, 
 V. Bakken, C. Adamo, J. Jaramillo, R. Gomperts, R. E. Stratmann, 
 O. Yazyev, A. J. Austin, R. Cammi, C. Pomelli, J. W. Ochterski, 
 R. L. Martin, K. Morokuma, V. G. Zakrzewski, G. A. Voth, 
 P. Salvador, J. J. Dannenberg, S. Dapprich, A. D. Daniels, 
 O. Farkas, J. B. Foresman, J. V. Ortiz, J. Cioslowski, 
 and D. J. Fox, Gaussian, Inc., Wallingford CT, 2010.
 
 ******************************************
 Gaussian 09:  EM64L-G09RevB.01 12-Aug-2010
                16-Jun-2012 
 ******************************************
 %chk=/home/hmayes/gaussian/bglucose/bglc_03b_110.chk
 %mem=10GB
 %nproc=8
 Will use up to    8 processors via shared memory.
 Default route:  MaxDisk=16GB
 ----------------------------------------------------------------------
 # opt(modredundant) m062x/6-31G(d) nosymm scf=xqc geom=allcheck guess=
 read
 ----------------------------------------------------------------------
 1/14=-1,18=120,19=15,26=3,29=7,38=1/1,3;
 2/9=110,12=2,15=1,40=1/2;
 3/5=1,6=6,7=1,11=2,14=-4,16=1,25=1,30=1,71=1,74=-55,116=-2/1,2,3;
 4/5=1/1;
 5/5=2,8=3,13=1,38=6/2,8;
 6/7=2,8=2,9=2,10=2,28=1/1;
 7/30=1/1,2,3,16;
 1/14=-1,18=20,19=15/3(2);
 2/9=110,15=1/2;
 99//99;
 2/9=110,15=1/2;
 3/5=1,6=6,7=1,11=2,14=-2,16=1,25=1,30=1,71=1,74=-55/1,2,3;
 4/5=5,16=3/1;
 5/5=2,8=3,13=1,38=5/2,8;
 7/30=1/1,2,3,16;
 1/14=-1,18=20,19=15/3(-5);
 2/9=110,15=1/2;
 6/7=2,8=2,9=2,10=2,19=2,28=1/1;
 99/9=1/99;
 ---------------------------------------------
 Starting Geometry for Conformational Analysis
 ---------------------------------------------
 Redundant internal coordinates taken from checkpoint file:
 /home/hmayes/gaussian/bglucose/bglc_03b_110.chk
 Charge =  0 Multiplicity = 1
 C,0,-23.7306904099,-12.2200517845,-17.3931363539
 H,0,-23.2843981046,-12.9747911999,-18.063717539
 O,0,-24.7313855695,-12.7589791438,-16.5987899761
 H,0,-24.3369924555,-13.4318922043,-16.0226800468
 C,0,-21.6380051386,-11.1382811963,-17.3117599539
 H,0,-21.2373959865,-11.9035421697,-17.9947239491
 O,0,-22.7207507843,-11.712676574,-16.5408893069
 C,0,-24.3257406502,-11.0733828642,-18.2221399582
 H,0,-25.3860959554,-10.9873981161,-17.9579115667
 O,0,-24.1746356165,-11.4003853705,-19.5998763059
 H,0,-24.7968016251,-10.875317343,-20.1232869232
 C,0,-23.6009804094,-9.7637177322,-17.8526197527
 H,0,-24.0106021684,-8.9710455,-18.4939015452
 O,0,-23.8327688906,-9.3391169375,-16.5350062006
 H,0,-23.5277089747,-10.0374369463,-15.927767797
 C,0,-22.1154827078,-9.9063022764,-18.1801330017
 H,0,-21.5992573947,-8.997798039,-17.8483595012
 O,0,-21.8073149914,-10.0366047949,-19.5422467381
 H,0,-22.409158074,-10.6975320939,-19.9261245453
 C,0,-20.5734450801,-10.7533074609,-16.2955221802
 H,0,-20.2486379486,-11.641543765,-15.7483401635
 H,0,-19.7088459119,-10.3348829464,-16.831088608
 O,0,-21.0647327855,-9.8629566443,-15.3148211476
 H,0,-21.3407763668,-9.0297908969,-15.726457939
 Recover connectivity data from disk.
 The following ModRedundant input section has been read:
 D       7       5      16      12 F                                           
 D       8      12      16       5 F                                           
 D       1       8      12      16 F                                           
 D       7       1       8      12 F                                           

 GradGradGradGradGradGradGradGradGradGradGradGradGradGradGradGradGradGrad
 Berny optimization.
 Initialization pass.
                           ----------------------------
                           !    Initial Parameters    !
                           ! (Angstroms and Degrees)  !
 --------------------------                            --------------------------
 ! Name  Definition              Value          Derivative Info.                !
 --------------------------------------------------------------------------------
 ! R1    R(1,2)                  1.1039         estimate D2E/DX2                !
 ! R2    R(1,3)                  1.3867         estimate D2E/DX2                !
 ! R3    R(1,7)                  1.4155         estimate D2E/DX2                !
 ! R4    R(1,8)                  1.535          estimate D2E/DX2                !
 ! R5    R(3,4)                  0.9697         estimate D2E/DX2                !
 ! R6    R(5,6)                  1.1012         estimate D2E/DX2                !
 ! R7    R(5,7)                  1.4479         estimate D2E/DX2                !
 ! R8    R(5,16)                 1.5811         estimate D2E/DX2                !
 ! R9    R(5,20)                 1.5213         estimate D2E/DX2                !
 ! R10   R(8,9)                  1.0962         estimate D2E/DX2                !
 ! R11   R(8,10)                 1.4241         estimate D2E/DX2                !
 ! R12   R(8,12)                 1.5418         estimate D2E/DX2                !
 ! R13   R(10,11)                0.9679         estimate D2E/DX2                !
 ! R14   R(10,19)                1.928          estimate D2E/DX2                !
 ! R15   R(12,13)                1.0988         estimate D2E/DX2                !
 ! R16   R(12,14)                1.4036         estimate D2E/DX2                !
 ! R17   R(12,16)                1.5278         estimate D2E/DX2                !
 ! R18   R(14,15)                0.9744         estimate D2E/DX2                !
 ! R19   R(16,17)                1.0963         estimate D2E/DX2                !
 ! R20   R(16,18)                1.4026         estimate D2E/DX2                !
 ! R21   R(18,19)                0.9728         estimate D2E/DX2                !
 ! R22   R(20,21)                1.0926         estimate D2E/DX2                !
 ! R23   R(20,22)                1.0997         estimate D2E/DX2                !
 ! R24   R(20,23)                1.4128         estimate D2E/DX2                !
 ! R25   R(23,24)                0.9694         estimate D2E/DX2                !
 ! A1    A(2,1,3)              111.9649         estimate D2E/DX2                !
 ! A2    A(2,1,7)              108.8061         estimate D2E/DX2                !
 ! A3    A(2,1,8)              109.8407         estimate D2E/DX2                !
 ! A4    A(3,1,7)              108.0167         estimate D2E/DX2                !
 ! A5    A(3,1,8)              108.6602         estimate D2E/DX2                !
 ! A6    A(7,1,8)              109.5108         estimate D2E/DX2                !
 ! A7    A(1,3,4)              108.4536         estimate D2E/DX2                !
 ! A8    A(6,5,7)              109.0602         estimate D2E/DX2                !
 ! A9    A(6,5,16)             108.1036         estimate D2E/DX2                !
 ! A10   A(6,5,20)             109.6093         estimate D2E/DX2                !
 ! A11   A(7,5,16)             112.0667         estimate D2E/DX2                !
 ! A12   A(7,5,20)             105.5471         estimate D2E/DX2                !
 ! A13   A(16,5,20)            112.3982         estimate D2E/DX2                !
 ! A14   A(1,7,5)              110.8043         estimate D2E/DX2                !
 ! A15   A(1,8,9)              107.6625         estimate D2E/DX2                !
 ! A16   A(1,8,10)             108.0493         estimate D2E/DX2                !
 ! A17   A(1,8,12)             108.8378         estimate D2E/DX2                !
 ! A18   A(9,8,10)             110.7239         estimate D2E/DX2                !
 ! A19   A(9,8,12)             109.2884         estimate D2E/DX2                !
 ! A20   A(10,8,12)            112.1515         estimate D2E/DX2                !
 ! A21   A(8,10,11)            109.2943         estimate D2E/DX2                !
 ! A22   A(8,12,13)            107.3181         estimate D2E/DX2                !
 ! A23   A(8,12,14)            113.849          estimate D2E/DX2                !
 ! A24   A(8,12,16)            109.0507         estimate D2E/DX2                !
 ! A25   A(13,12,14)           105.5497         estimate D2E/DX2                !
 ! A26   A(13,12,16)           107.7386         estimate D2E/DX2                !
 ! A27   A(14,12,16)           112.9559         estimate D2E/DX2                !
 ! A28   A(12,14,15)           108.4523         estimate D2E/DX2                !
 ! A29   A(5,16,12)            104.3952         estimate D2E/DX2                !
 ! A30   A(5,16,17)            109.7123         estimate D2E/DX2                !
 ! A31   A(5,16,18)            113.243          estimate D2E/DX2                !
 ! A32   A(12,16,17)           108.3976         estimate D2E/DX2                !
 ! A33   A(12,16,18)           115.4972         estimate D2E/DX2                !
 ! A34   A(17,16,18)           105.5105         estimate D2E/DX2                !
 ! A35   A(16,18,19)           108.0832         estimate D2E/DX2                !
 ! A36   A(5,20,21)            109.6845         estimate D2E/DX2                !
 ! A37   A(5,20,22)            108.7308         estimate D2E/DX2                !
 ! A38   A(5,20,23)            112.3251         estimate D2E/DX2                !
 ! A39   A(21,20,22)           108.6308         estimate D2E/DX2                !
 ! A40   A(21,20,23)           105.5491         estimate D2E/DX2                !
 ! A41   A(22,20,23)           111.8187         estimate D2E/DX2                !
 ! A42   A(20,23,24)           110.2367         estimate D2E/DX2                !
 ! D1    D(2,1,3,4)             63.2186         estimate D2E/DX2                !
 ! D2    D(7,1,3,4)            -56.5629         estimate D2E/DX2                !
 ! D3    D(8,1,3,4)           -175.2828         estimate D2E/DX2                !
 ! D4    D(2,1,7,5)             57.9927         estimate D2E/DX2                !
 ! D5    D(3,1,7,5)            179.7461         estimate D2E/DX2                !
 ! D6    D(8,1,7,5)            -62.0772         estimate D2E/DX2                !
 ! D7    D(2,1,8,9)            123.0023         estimate D2E/DX2                !
 ! D8    D(2,1,8,10)             3.3749         estimate D2E/DX2                !
 ! D9    D(2,1,8,12)          -118.6436         estimate D2E/DX2                !
 ! D10   D(3,1,8,9)              0.2125         estimate D2E/DX2                !
 ! D11   D(3,1,8,10)          -119.4149         estimate D2E/DX2                !
 ! D12   D(3,1,8,12)           118.5666         estimate D2E/DX2                !
 ! D13   D(7,1,8,9)           -117.5626         estimate D2E/DX2                !
 ! D14   D(7,1,8,10)           122.81           estimate D2E/DX2                !
 ! D15   D(7,1,8,12)             0.7915         Frozen                          !
 ! D16   D(6,5,7,1)            -57.1761         estimate D2E/DX2                !
 ! D17   D(16,5,7,1)            62.481          estimate D2E/DX2                !
 ! D18   D(20,5,7,1)          -174.8655         estimate D2E/DX2                !
 ! D19   D(6,5,16,12)          121.008          estimate D2E/DX2                !
 ! D20   D(6,5,16,17)         -123.0102         estimate D2E/DX2                !
 ! D21   D(6,5,16,18)           -5.427          estimate D2E/DX2                !
 ! D22   D(7,5,16,12)            0.7924         Frozen                          !
 ! D23   D(7,5,16,17)          116.7742         estimate D2E/DX2                !
 ! D24   D(7,5,16,18)         -125.6426         estimate D2E/DX2                !
 ! D25   D(20,5,16,12)        -117.8857         estimate D2E/DX2                !
 ! D26   D(20,5,16,17)          -1.9039         estimate D2E/DX2                !
 ! D27   D(20,5,16,18)         115.6793         estimate D2E/DX2                !
 ! D28   D(6,5,20,21)          -57.5779         estimate D2E/DX2                !
 ! D29   D(6,5,20,22)           61.0799         estimate D2E/DX2                !
 ! D30   D(6,5,20,23)         -174.6221         estimate D2E/DX2                !
 ! D31   D(7,5,20,21)           59.7415         estimate D2E/DX2                !
 ! D32   D(7,5,20,22)          178.3993         estimate D2E/DX2                !
 ! D33   D(7,5,20,23)          -57.3027         estimate D2E/DX2                !
 ! D34   D(16,5,20,21)        -177.8173         estimate D2E/DX2                !
 ! D35   D(16,5,20,22)         -59.1595         estimate D2E/DX2                !
 ! D36   D(16,5,20,23)          65.1385         estimate D2E/DX2                !
 ! D37   D(1,8,10,11)          160.166          estimate D2E/DX2                !
 ! D38   D(9,8,10,11)           42.4892         estimate D2E/DX2                !
 ! D39   D(12,8,10,11)         -79.8783         estimate D2E/DX2                !
 ! D40   D(1,8,12,13)          177.2569         estimate D2E/DX2                !
 ! D41   D(1,8,12,14)          -66.3285         estimate D2E/DX2                !
 ! D42   D(1,8,12,16)           60.8138         Frozen                          !
 ! D43   D(9,8,12,13)          -65.4176         estimate D2E/DX2                !
 ! D44   D(9,8,12,14)           50.9969         estimate D2E/DX2                !
 ! D45   D(9,8,12,16)          178.1393         estimate D2E/DX2                !
 ! D46   D(10,8,12,13)          57.7618         estimate D2E/DX2                !
 ! D47   D(10,8,12,14)         174.1763         estimate D2E/DX2                !
 ! D48   D(10,8,12,16)         -58.6814         estimate D2E/DX2                !
 ! D49   D(8,12,14,15)          59.5089         estimate D2E/DX2                !
 ! D50   D(13,12,14,15)        176.9504         estimate D2E/DX2                !
 ! D51   D(16,12,14,15)        -65.5779         estimate D2E/DX2                !
 ! D52   D(8,12,16,5)          -59.1532         Frozen                          !
 ! D53   D(8,12,16,17)        -176.0482         estimate D2E/DX2                !
 ! D54   D(8,12,16,18)          65.862          estimate D2E/DX2                !
 ! D55   D(13,12,16,5)        -175.3276         estimate D2E/DX2                !
 ! D56   D(13,12,16,17)         67.7773         estimate D2E/DX2                !
 ! D57   D(13,12,16,18)        -50.3125         estimate D2E/DX2                !
 ! D58   D(14,12,16,5)          68.4948         estimate D2E/DX2                !
 ! D59   D(14,12,16,17)        -48.4002         estimate D2E/DX2                !
 ! D60   D(14,12,16,18)       -166.49           estimate D2E/DX2                !
 ! D61   D(5,16,18,19)          73.4835         estimate D2E/DX2                !
 ! D62   D(12,16,18,19)        -46.8208         estimate D2E/DX2                !
 ! D63   D(17,16,18,19)       -166.5061         estimate D2E/DX2                !
 ! D64   D(5,20,23,24)         -62.7938         estimate D2E/DX2                !
 ! D65   D(21,20,23,24)        177.719          estimate D2E/DX2                !
 ! D66   D(22,20,23,24)         59.7762         estimate D2E/DX2                !
 --------------------------------------------------------------------------------
 Trust Radius=3.00D-01 FncErr=1.00D-07 GrdErr=1.00D-06
 Number of steps in this run=    143 maximum allowed number of steps=    144.
 GradGradGradGradGradGradGradGradGradGradGradGradGradGradGradGradGradGrad

                          Input orientation:                          
 ---------------------------------------------------------------------
 Center     Atomic      Atomic             Coordinates (Angstroms)
 Number     Number       Type             X           Y           Z
 ---------------------------------------------------------------------
      1          6           0      -23.730690  -12.220052  -17.393136
      2          1           0      -23.284398  -12.974791  -18.063718
      3          8           0      -24.731386  -12.758979  -16.598790
      4          1           0      -24.336992  -13.431892  -16.022680
      5          6           0      -21.638005  -11.138281  -17.311760
      6          1           0      -21.237396  -11.903542  -17.994724
      7          8           0      -22.720751  -11.712677  -16.540889
      8          6           0      -24.325741  -11.073383  -18.222140
      9          1           0      -25.386096  -10.987398  -17.957912
     10          8           0      -24.174636  -11.400385  -19.599876
     11          1           0      -24.796802  -10.875317  -20.123287
     12          6           0      -23.600980   -9.763718  -17.852620
     13          1           0      -24.010602   -8.971046  -18.493902
     14          8           0      -23.832769   -9.339117  -16.535006
     15          1           0      -23.527709  -10.037437  -15.927768
     16          6           0      -22.115483   -9.906302  -18.180133
     17          1           0      -21.599257   -8.997798  -17.848360
     18          8           0      -21.807315  -10.036605  -19.542247
     19          1           0      -22.409158  -10.697532  -19.926125
     20          6           0      -20.573445  -10.753307  -16.295522
     21          1           0      -20.248638  -11.641544  -15.748340
     22          1           0      -19.708846  -10.334883  -16.831089
     23          8           0      -21.064733   -9.862957  -15.314821
     24          1           0      -21.340776   -9.029791  -15.726458
 ---------------------------------------------------------------------
                    Distance matrix (angstroms):
                    1          2          3          4          5
     1  C    0.000000
     2  H    1.103851   0.000000
     3  O    1.386658   2.070353   0.000000
     4  H    1.927254   2.341523   0.969670   0.000000
     5  C    2.357155   2.578530   3.564266   3.769206   0.000000
     6  H    2.584299   2.311396   3.858545   3.978983   1.101159
     7  O    1.415533   2.056608   2.267323   2.415881   1.447933
     8  C    1.534986   2.173671   2.375089   3.224952   2.838472
     9  H    2.139807   2.894488   2.326877   3.289573   3.806371
    10  O    2.395546   2.372986   3.340998   4.117003   3.426174
    11  H    3.224690   3.307111   3.996816   4.854120   4.236960
    12  C    2.502304   3.233540   3.438240   4.164841   2.456670
    13  H    3.441813   4.091749   4.296442   5.110051   3.423972
    14  O    3.007755   3.981934   3.536529   4.155422   2.942333
    15  H    2.636724   3.639991   3.050557   3.490884   2.588102
    16  C    2.929453   3.285657   4.181071   4.692493   1.581085
    17  H    3.890135   4.324645   5.051548   5.521729   2.207059
    18  O    3.617387   3.605657   4.962404   5.505869   2.493477
    19  H    3.237367   3.069286   4.551204   5.141026   2.761130
    20  C    3.650246   3.925656   4.626355   4.627477   1.521260
    21  H    3.894190   4.044053   4.697548   4.471605   2.151254
    22  H    4.477163   4.612273   5.581766   5.627142   2.144330
    23  O    4.120998   4.708169   4.845603   4.893470   2.437798
    24  H    4.320564   4.980309   5.115080   5.333250   2.654667
                    6          7          8          9         10
     6  H    0.000000
     7  O    2.085763   0.000000
     8  C    3.206050   2.410662   0.000000
     9  H    4.248810   3.104520   1.096158   0.000000
    10  O    3.384828   3.401280   1.424051   2.081884   0.000000
    11  H    4.272867   4.224302   1.968626   2.246927   0.967856
    12  C    3.191485   2.508761   1.541767   2.166822   2.461842
    13  H    4.066865   3.604790   2.143126   2.498989   2.674281
    14  O    3.929760   2.621146   2.469235   2.674755   3.709330
    15  H    3.605578   1.957940   2.640868   2.911617   3.969953
    16  C    2.189607   2.513256   2.499816   3.451820   2.913429
    17  H    2.931845   3.215244   3.446952   4.279095   3.933549
    18  O    2.491002   3.556927   3.026559   4.027629   2.732659
    19  H    2.560819   3.547876   2.591933   3.580509   1.928043
    20  C    2.156654   2.364639   4.230133   5.097053   4.930116
    21  H    2.468304   2.597024   4.802630   5.630594   5.505084
    22  H    2.480162   3.324771   4.878127   5.824661   5.361414
    23  O    3.372785   2.768953   4.533410   5.188880   5.513337
    24  H    3.662535   3.124981   4.394850   5.017591   5.352929
                   11         12         13         14         15
    11  H    0.000000
    12  C    2.796707   0.000000
    13  H    2.626644   1.098800   0.000000
    14  O    4.020576   1.403609   2.001093   0.000000
    15  H    4.462625   1.945597   2.820535   0.974398   0.000000
    16  C    3.450262   1.527841   2.136500   2.444834   2.661715
    17  H    4.350249   2.143256   2.496402   2.613421   2.913494
    18  O    3.158809   2.479222   2.662502   3.692215   4.003026
    19  H    2.402358   2.567464   2.756201   3.920669   4.204015
    20  C    5.701176   3.545393   4.452345   3.560966   3.061926
    21  H    6.357126   4.380916   5.368616   4.331975   3.654813
    22  H    6.084236   4.064292   4.809377   4.252759   3.935502
    23  O    6.170458   3.589265   4.424952   3.070062   2.544091
    24  H    5.889158   3.188689   3.845798   2.638079   2.416309
                   16         17         18         19         20
    16  C    0.000000
    17  H    1.096331   0.000000
    18  O    1.402605   1.997914   0.000000
    19  H    1.939272   2.803951   0.972832   0.000000
    20  C    2.578188   2.558399   3.546451   4.068689   0.000000
    21  H    3.522753   3.636433   4.404433   4.797175   1.092644
    22  H    2.792043   2.529089   3.441354   4.123402   1.099746
    23  O    3.052207   2.730024   4.295662   4.875255   1.412750
    24  H    2.718265   2.137827   3.973862   4.643275   1.970569
                   21         22         23         24
    21  H    0.000000
    22  H    1.780753   0.000000
    23  O    2.004326   2.088112   0.000000
    24  H    2.830989   2.363614   0.969438   0.000000
 Symmetry turned off by external request.
 Stoichiometry    C6H12O6
 Framework group  C1[X(C6H12O6)]
 Deg. of freedom    66
 Full point group                 C1      NOp   1
 Rotational constants (GHZ):      1.2122200      0.8743868      0.6982195
 Standard basis: 6-31G(d) (6D, 7F)
 Integral buffers will be    131072 words long.
 Raffenetti 2 integral format.
 Two-electron integral symmetry is turned off.
   204 basis functions,   384 primitive gaussians,   204 cartesian basis functions
    48 alpha electrons       48 beta electrons
       nuclear repulsion energy       858.7836020959 Hartrees.
 NAtoms=   24 NActive=   24 NUniq=   24 SFac= 1.00D+00 NAtFMM=   50 NAOKFM=F Big=F
 One-electron integrals computed using PRISM.
 NBasis=   204 RedAO= T  NBF=   204
 NBsUse=   204 1.00D-06 NBFU=   204
 Initial guess read from the checkpoint file:  /home/hmayes/gaussian/bglucose/bglc_03b_110.chk
 B after Tr=     0.000000    0.000000    0.000000
         Rot=    1.000000    0.000000    0.000000    0.000000 Ang=   0.00 deg.
 Requested convergence on RMS density matrix=1.00D-08 within  64 cycles.
 Requested convergence on MAX density matrix=1.00D-06.
 Requested convergence on             energy=1.00D-06.
 No special actions if energy rises.
 Keep R1 ints in memory in canonical form, NReq=223266818.
 SCF Done:  E(RM062X) =  -686.874434558     A.U. after   11 cycles
             Convg  =    0.3322D-08             -V/T =  2.0079
 QCSCF skips out because SCF is already converged.

 **********************************************************************

            Population analysis using the SCF density.

 **********************************************************************

 Alpha  occ. eigenvalues --  -19.67574 -19.66468 -19.65928 -19.63938 -19.63563
 Alpha  occ. eigenvalues --  -19.63396 -10.66024 -10.61167 -10.60768 -10.60398
 Alpha  occ. eigenvalues --  -10.60105 -10.59781  -1.21641  -1.17691  -1.15709
 Alpha  occ. eigenvalues --   -1.14175  -1.13833  -1.13049  -0.87803  -0.87281
 Alpha  occ. eigenvalues --   -0.79334  -0.74318  -0.71528  -0.66976  -0.64953
 Alpha  occ. eigenvalues --   -0.62710  -0.61799  -0.59257  -0.57096  -0.56013
 Alpha  occ. eigenvalues --   -0.54195  -0.52283  -0.51238  -0.49710  -0.48054
 Alpha  occ. eigenvalues --   -0.47312  -0.46427  -0.45396  -0.44569  -0.42610
 Alpha  occ. eigenvalues --   -0.40981  -0.40060  -0.39503  -0.38767  -0.36784
 Alpha  occ. eigenvalues --   -0.34831  -0.32725  -0.31241
 Alpha virt. eigenvalues --    0.08308   0.10472   0.12203   0.13625   0.15247
 Alpha virt. eigenvalues --    0.16608   0.17813   0.18401   0.20058   0.20280
 Alpha virt. eigenvalues --    0.21314   0.21703   0.22788   0.24036   0.25043
 Alpha virt. eigenvalues --    0.27245   0.27755   0.28780   0.29313   0.32212
 Alpha virt. eigenvalues --    0.35758   0.36369   0.39473   0.40694   0.57075
 Alpha virt. eigenvalues --    0.58342   0.59665   0.60862   0.62755   0.63386
 Alpha virt. eigenvalues --    0.64323   0.64878   0.67293   0.68519   0.69247
 Alpha virt. eigenvalues --    0.71683   0.74300   0.76434   0.78411   0.81549
 Alpha virt. eigenvalues --    0.83063   0.85337   0.85702   0.87571   0.87849
 Alpha virt. eigenvalues --    0.89660   0.90099   0.90662   0.92570   0.93244
 Alpha virt. eigenvalues --    0.94770   0.95429   0.96744   0.97966   0.99321
 Alpha virt. eigenvalues --    1.02087   1.03010   1.04258   1.05372   1.07463
 Alpha virt. eigenvalues --    1.08906   1.11883   1.13322   1.14117   1.15629
 Alpha virt. eigenvalues --    1.18806   1.21515   1.22452   1.24786   1.28436
 Alpha virt. eigenvalues --    1.30765   1.31565   1.32724   1.36801   1.38821
 Alpha virt. eigenvalues --    1.39980   1.45223   1.47787   1.50367   1.54029
 Alpha virt. eigenvalues --    1.57740   1.58141   1.61645   1.62498   1.64114
 Alpha virt. eigenvalues --    1.67581   1.72104   1.72435   1.74707   1.77294
 Alpha virt. eigenvalues --    1.79492   1.80101   1.83306   1.84652   1.86342
 Alpha virt. eigenvalues --    1.87130   1.89018   1.91930   1.92520   1.94826
 Alpha virt. eigenvalues --    1.97256   1.99187   2.01276   2.04238   2.05342
 Alpha virt. eigenvalues --    2.06160   2.09062   2.11195   2.13688   2.16328
 Alpha virt. eigenvalues --    2.18440   2.20450   2.23966   2.24308   2.26166
 Alpha virt. eigenvalues --    2.28694   2.31074   2.33272   2.38831   2.40451
 Alpha virt. eigenvalues --    2.43235   2.44319   2.46204   2.48313   2.51452
 Alpha virt. eigenvalues --    2.54384   2.58062   2.58801   2.60577   2.64240
 Alpha virt. eigenvalues --    2.66070   2.69162   2.70872   2.73410   2.76549
 Alpha virt. eigenvalues --    2.78861   2.85033   2.87280   2.91964   2.95595
 Alpha virt. eigenvalues --    2.96595   3.03121   3.05743   3.09486   3.74889
 Alpha virt. eigenvalues --    3.80929   3.86063   3.93349   4.03747   4.16627
 Alpha virt. eigenvalues --    4.32343   4.40837   4.47184   4.62751   4.81133
 Alpha virt. eigenvalues --    4.86673
          Condensed to atoms (all electrons):
              1          2          3          4          5          6
     1  C    4.661642   0.393227   0.270217  -0.021958  -0.017833  -0.005465
     2  H    0.393227   0.616929  -0.039135  -0.005515  -0.004660   0.012119
     3  O    0.270217  -0.039135   8.266169   0.244065   0.003430   0.000007
     4  H   -0.021958  -0.005515   0.244065   0.346406  -0.000126  -0.000035
     5  C   -0.017833  -0.004660   0.003430  -0.000126   5.184613   0.353480
     6  H   -0.005465   0.012119   0.000007  -0.000035   0.353480   0.580459
     7  O    0.187841  -0.054604  -0.059947   0.003007   0.163349  -0.035109
     8  C    0.281470  -0.081897  -0.041934   0.008149  -0.028436  -0.002449
     9  H   -0.037486   0.004839   0.002000  -0.000062   0.000000   0.000048
    10  O   -0.036561   0.006700   0.000841  -0.000165   0.001146   0.000018
    11  H    0.006110  -0.000321  -0.000164   0.000013   0.000024  -0.000025
    12  C   -0.053224   0.003174   0.000578  -0.000408  -0.051143   0.003367
    13  H    0.005704  -0.000255  -0.000087   0.000008   0.007559  -0.000231
    14  O    0.010332  -0.000160  -0.000601   0.000027   0.009829  -0.000172
    15  H    0.003510   0.000601   0.001614   0.000042   0.000148   0.000629
    16  C   -0.021584  -0.001279   0.000074   0.000032   0.273866  -0.055156
    17  H   -0.000020   0.000058   0.000004  -0.000001  -0.065203   0.004211
    18  O    0.000050   0.000142   0.000000   0.000000  -0.046013   0.004584
    19  H   -0.000559   0.000706   0.000001   0.000001  -0.001835   0.002421
    20  C    0.003190  -0.000060  -0.000152  -0.000016   0.312845  -0.024196
    21  H   -0.000171  -0.000055  -0.000006   0.000012  -0.036291  -0.003415
    22  H   -0.000070  -0.000005   0.000001   0.000000  -0.055433   0.002763
    23  O   -0.000094  -0.000010   0.000002  -0.000001  -0.058152   0.003035
    24  H   -0.000082   0.000001   0.000001   0.000000  -0.004455  -0.000042
              7          8          9         10         11         12
     1  C    0.187841   0.281470  -0.037486  -0.036561   0.006110  -0.053224
     2  H   -0.054604  -0.081897   0.004839   0.006700  -0.000321   0.003174
     3  O   -0.059947  -0.041934   0.002000   0.000841  -0.000164   0.000578
     4  H    0.003007   0.008149  -0.000062  -0.000165   0.000013  -0.000408
     5  C    0.163349  -0.028436   0.000000   0.001146   0.000024  -0.051143
     6  H   -0.035109  -0.002449   0.000048   0.000018  -0.000025   0.003367
     7  O    8.463255  -0.044259   0.003056   0.001051  -0.000137   0.004012
     8  C   -0.044259   5.211604   0.372464   0.154296  -0.021859   0.307686
     9  H    0.003056   0.372464   0.529520  -0.025680  -0.007269  -0.042085
    10  O    0.001051   0.154296  -0.025680   8.335974   0.246396  -0.038894
    11  H   -0.000137  -0.021859  -0.007269   0.246396   0.340853   0.000219
    12  C    0.004012   0.307686  -0.042085  -0.038894   0.000219   4.995227
    13  H    0.000051  -0.051586  -0.005699   0.002185   0.002865   0.389365
    14  O   -0.026462  -0.044022   0.003433   0.001580   0.000000   0.224610
    15  H    0.025380  -0.009723   0.000138   0.000031   0.000010  -0.034145
    16  C   -0.043007  -0.028617   0.005910   0.001277  -0.000676   0.288024
    17  H    0.003153   0.006023  -0.000138  -0.000179  -0.000006  -0.044347
    18  O    0.001293   0.003584  -0.000208  -0.019163   0.001409  -0.033160
    19  H    0.000158  -0.002883   0.000513   0.040793  -0.002008  -0.009272
    20  C   -0.044144   0.000585   0.000008   0.000007  -0.000001  -0.000015
    21  H   -0.000417   0.000017  -0.000001   0.000000   0.000000  -0.000344
    22  H    0.003301   0.000016   0.000000   0.000000   0.000000   0.000271
    23  O   -0.000205   0.000031   0.000001   0.000000   0.000000  -0.002154
    24  H    0.000077   0.000186  -0.000005  -0.000002   0.000000  -0.002341
             13         14         15         16         17         18
     1  C    0.005704   0.010332   0.003510  -0.021584  -0.000020   0.000050
     2  H   -0.000255  -0.000160   0.000601  -0.001279   0.000058   0.000142
     3  O   -0.000087  -0.000601   0.001614   0.000074   0.000004   0.000000
     4  H    0.000008   0.000027   0.000042   0.000032  -0.000001   0.000000
     5  C    0.007559   0.009829   0.000148   0.273866  -0.065203  -0.046013
     6  H   -0.000231  -0.000172   0.000629  -0.055156   0.004211   0.004584
     7  O    0.000051  -0.026462   0.025380  -0.043007   0.003153   0.001293
     8  C   -0.051586  -0.044022  -0.009723  -0.028617   0.006023   0.003584
     9  H   -0.005699   0.003433   0.000138   0.005910  -0.000138  -0.000208
    10  O    0.002185   0.001580   0.000031   0.001277  -0.000179  -0.019163
    11  H    0.002865   0.000000   0.000010  -0.000676  -0.000006   0.001409
    12  C    0.389365   0.224610  -0.034145   0.288024  -0.044347  -0.033160
    13  H    0.578819  -0.033151   0.005252  -0.055076  -0.006074   0.004400
    14  O   -0.033151   8.328740   0.238065  -0.042891   0.001203   0.001597
    15  H    0.005252   0.238065   0.312424  -0.004694  -0.000205  -0.000054
    16  C   -0.055076  -0.042891  -0.004694   5.028480   0.390407   0.237504
    17  H   -0.006074   0.001203  -0.000205   0.390407   0.579173  -0.038284
    18  O    0.004400   0.001597  -0.000054   0.237504  -0.038284   8.318546
    19  H   -0.000228   0.000008   0.000030  -0.031458   0.005752   0.239291
    20  C   -0.000195  -0.001881  -0.002780  -0.021725   0.000357   0.002075
    21  H    0.000005   0.000017  -0.000028   0.004948   0.000265  -0.000083
    22  H   -0.000007  -0.000037   0.000281  -0.004282   0.000465   0.000500
    23  O   -0.000019  -0.002854   0.013500  -0.001807   0.001231   0.000061
    24  H    0.000028   0.009778  -0.001691   0.005627   0.007852   0.000026
             19         20         21         22         23         24
     1  C   -0.000559   0.003190  -0.000171  -0.000070  -0.000094  -0.000082
     2  H    0.000706  -0.000060  -0.000055  -0.000005  -0.000010   0.000001
     3  O    0.000001  -0.000152  -0.000006   0.000001   0.000002   0.000001
     4  H    0.000001  -0.000016   0.000012   0.000000  -0.000001   0.000000
     5  C   -0.001835   0.312845  -0.036291  -0.055433  -0.058152  -0.004455
     6  H    0.002421  -0.024196  -0.003415   0.002763   0.003035  -0.000042
     7  O    0.000158  -0.044144  -0.000417   0.003301  -0.000205   0.000077
     8  C   -0.002883   0.000585   0.000017   0.000016   0.000031   0.000186
     9  H    0.000513   0.000008  -0.000001   0.000000   0.000001  -0.000005
    10  O    0.040793   0.000007   0.000000   0.000000   0.000000  -0.000002
    11  H   -0.002008  -0.000001   0.000000   0.000000   0.000000   0.000000
    12  C   -0.009272  -0.000015  -0.000344   0.000271  -0.002154  -0.002341
    13  H   -0.000228  -0.000195   0.000005  -0.000007  -0.000019   0.000028
    14  O    0.000008  -0.001881   0.000017  -0.000037  -0.002854   0.009778
    15  H    0.000030  -0.002780  -0.000028   0.000281   0.013500  -0.001691
    16  C   -0.031458  -0.021725   0.004948  -0.004282  -0.001807   0.005627
    17  H    0.005752   0.000357   0.000265   0.000465   0.001231   0.007852
    18  O    0.239291   0.002075  -0.000083   0.000500   0.000061   0.000026
    19  H    0.320010   0.000012   0.000005  -0.000003   0.000000   0.000006
    20  C    0.000012   4.838861   0.386558   0.377007   0.262242  -0.030239
    21  H    0.000005   0.386558   0.539600  -0.034184  -0.040396   0.006187
    22  H   -0.000003   0.377007  -0.034184   0.594706  -0.034810  -0.005467
    23  O    0.000000   0.262242  -0.040396  -0.034810   8.272983   0.238828
    24  H    0.000006  -0.030239   0.006187  -0.005467   0.238828   0.355385
 Mulliken atomic charges:
              1
     1  C    0.371814
     2  H    0.149461
     3  O   -0.646979
     4  H    0.426526
     5  C    0.059290
     6  H    0.159155
     7  O   -0.550692
     8  C    0.011555
     9  H    0.196704
    10  O   -0.671652
    11  H    0.434567
    12  C    0.095000
    13  H    0.156367
    14  O   -0.676988
    15  H    0.451665
    16  C    0.076107
    17  H    0.154302
    18  O   -0.678098
    19  H    0.438542
    20  C   -0.058342
    21  H    0.177778
    22  H    0.154988
    23  O   -0.651411
    24  H    0.420343
 Sum of Mulliken atomic charges =   0.00000
 Mulliken charges with hydrogens summed into heavy atoms:
              1
     1  C    0.521274
     3  O   -0.220453
     5  C    0.218446
     7  O   -0.550692
     8  C    0.208259
    10  O   -0.237085
    12  C    0.251367
    14  O   -0.225324
    16  C    0.230409
    18  O   -0.239555
    20  C    0.274423
    23  O   -0.231068
 Sum of Mulliken charges with hydrogens summed into heavy atoms =   0.00000
 Electronic spatial extent (au):  <R**2>=         325511.5357
 Charge=              0.0000 electrons
 Dipole moment (field-independent basis, Debye):
    X=             -0.4896    Y=             -1.6623    Z=             -1.8797  Tot=              2.5566
 Quadrupole moment (field-independent basis, Debye-Ang):
   XX=            -47.9678   YY=            -31.1184   ZZ=             -8.5978
   XY=             41.6656   XZ=             57.2691   YZ=             45.4128
 Traceless Quadrupole moment (field-independent basis, Debye-Ang):
   XX=            -18.7398   YY=             -1.8904   ZZ=             20.6302
   XY=             41.6656   XZ=             57.2691   YZ=             45.4128
 Octapole moment (field-independent basis, Debye-Ang**2):
  XXX=           4053.5524  YYY=           1579.1314  ZZZ=           2149.1473  XYY=            694.7789
  XXY=           -271.7776  XXZ=           -421.9567  XZZ=           -187.5970  YZZ=           -286.3211
  YYZ=            422.4118  XYZ=          -1153.1791
 Hexadecapole moment (field-independent basis, Debye-Ang**3):
 XXXX=        -197727.8035 YYYY=         -38554.7969 ZZZZ=         -95086.5584 XXXY=         -26925.7030
 XXXZ=         -38397.0974 YYYX=         -36309.8221 YYYZ=         -27045.0190 ZZZX=         -39577.1991
 ZZZY=         -17479.9181 XXYY=         -24058.8316 XXZZ=          -8152.2533 YYZZ=         -13938.2502
 XXYZ=          15785.9167 YYXZ=          -8974.0150 ZZXY=           9754.0891
 N-N= 8.587836020959D+02 E-N=-3.328311320429D+03  KE= 6.814889709055D+02
 Calling FoFJK, ICntrl=      2127 FMM=F ISym2X=0 I1Cent= 0 IOpClX= 0 NMat=1 NMatS=1 NMatT=0.
 -------------------------------------------------------------------
 Center     Atomic                   Forces (Hartrees/Bohr)
 Number     Number              X              Y              Z
 -------------------------------------------------------------------
      1        6          -0.000556131   -0.001396638    0.002013166
      2        1           0.000454313    0.000508901   -0.000836796
      3        8          -0.000678011    0.001308787   -0.000264576
      4        1           0.001115584    0.000839345   -0.001091714
      5        6           0.000333059    0.002036274    0.003593308
      6        1          -0.000331558    0.000469455   -0.000492833
      7        8           0.012748685   -0.001876452   -0.011558558
      8        6          -0.007054999    0.001387141    0.008783489
      9        1           0.000187469   -0.000144035    0.000485309
     10        8           0.000844857   -0.001529801   -0.000239084
     11        1           0.000222550    0.000860034    0.001505129
     12        6          -0.009160393    0.011781305   -0.019315504
     13        1           0.000154999   -0.000241761   -0.000263434
     14        8           0.000099905    0.000228313    0.000885100
     15        1           0.001042486   -0.000390358   -0.002793150
     16        6           0.003024366   -0.014780382    0.016633797
     17        1          -0.000129266    0.000004881    0.000705922
     18        8           0.000332293    0.000746932    0.000152651
     19        1          -0.000583748    0.000239403    0.002556879
     20        6          -0.001022043    0.003151012    0.001069161
     21        1           0.000069856   -0.000040676   -0.000109686
     22        1           0.000184347   -0.000623156   -0.000445867
     23        8          -0.001143731   -0.000923237    0.000814169
     24        1          -0.000154888   -0.001615289   -0.001786879
 -------------------------------------------------------------------
 Cartesian Forces:  Max     0.019315504 RMS     0.004721751

 GradGradGradGradGradGradGradGradGradGradGradGradGradGradGradGradGradGrad
 Berny optimization.
 Internal  Forces:  Max     0.010194905 RMS     0.002603268
 Search for a local minimum.
 Step number   1 out of a maximum of  143
 All quantities printed in internal units (Hartrees-Bohrs-Radians)
 Mixed Optimization -- RFO/linear search
 Second derivative matrix not updated -- first step.
 ITU=  0
     Eigenvalues ---    0.00485   0.01374   0.01523   0.01592   0.01644
     Eigenvalues ---    0.01741   0.01867   0.01868   0.02367   0.03436
     Eigenvalues ---    0.04421   0.04727   0.04799   0.04955   0.05325
     Eigenvalues ---    0.05602   0.05856   0.05967   0.06140   0.06484
     Eigenvalues ---    0.06562   0.06863   0.08052   0.08611   0.10525
     Eigenvalues ---    0.11354   0.11633   0.13958   0.14579   0.15533
     Eigenvalues ---    0.16000   0.16000   0.16000   0.16000   0.16518
     Eigenvalues ---    0.17248   0.18581   0.22083   0.22527   0.25627
     Eigenvalues ---    0.26721   0.27810   0.30246   0.33260   0.33554
     Eigenvalues ---    0.33710   0.33815   0.34091   0.34111   0.34509
     Eigenvalues ---    0.34738   0.38455   0.41793   0.43571   0.44941
     Eigenvalues ---    0.45028   0.47905   0.51460   0.52488   0.53444
     Eigenvalues ---    0.53492   0.538171000.000001000.000001000.00000
     Eigenvalues --- 1000.000001000.000001000.000001000.000001000.00000
     Eigenvalues --- 1000.000001000.000001000.000001000.000001000.00000
     Eigenvalues --- 1000.000001000.000001000.000001000.000001000.00000
     Eigenvalues --- 1000.000001000.000001000.000001000.000001000.00000
     Eigenvalues --- 1000.000001000.000001000.000001000.000001000.00000
     Eigenvalues --- 1000.000001000.000001000.000001000.000001000.00000
     Eigenvalues --- 1000.000001000.000001000.000001000.000001000.00000
     Eigenvalues --- 1000.000001000.000001000.000001000.000001000.00000
     Eigenvalues --- 1000.000001000.000001000.000001000.000001000.00000
     Eigenvalues --- 1000.000001000.000001000.000001000.000001000.00000
     Eigenvalues --- 1000.000001000.000001000.000001000.000001000.00000
     Eigenvalues --- 1000.000001000.000001000.000001000.000001000.00000
     Eigenvalues --- 1000.000001000.000001000.000001000.000001000.00000
     Eigenvalues --- 1000.000001000.000001000.00000
 RFO step:  Lambda=-1.33117171D-03 EMin= 4.84717873D-03
 Linear search not attempted -- first point.
 Iteration  1 RMS(Cart)=  0.04062101 RMS(Int)=  0.00070265
 Iteration  2 RMS(Cart)=  0.00099915 RMS(Int)=  0.00007997
 Iteration  3 RMS(Cart)=  0.00000089 RMS(Int)=  0.00007997
 Iteration  1 RMS(Cart)=  0.00000547 RMS(Int)=  0.00000546
 Iteration  2 RMS(Cart)=  0.00000373 RMS(Int)=  0.00000588
 Iteration  3 RMS(Cart)=  0.00000265 RMS(Int)=  0.00000658
 Iteration  4 RMS(Cart)=  0.00000199 RMS(Int)=  0.00000721
 Iteration  5 RMS(Cart)=  0.00000160 RMS(Int)=  0.00000775
 Iteration  6 RMS(Cart)=  0.00000136 RMS(Int)=  0.00000820
 Iteration  7 RMS(Cart)=  0.00000121 RMS(Int)=  0.00000859
 Iteration  8 RMS(Cart)=  0.00000111 RMS(Int)=  0.00000893
 Iteration  9 RMS(Cart)=  0.00000103 RMS(Int)=  0.00000926
 Iteration 10 RMS(Cart)=  0.00000097 RMS(Int)=  0.00000956
 Variable       Old X    -DE/DX   Delta X   Delta X   Delta X     New X
                                 (Linear)    (Quad)   (Total)
    R1        2.08598   0.00034   0.00000   0.00101   0.00101   2.08699
    R2        2.62040  -0.00192   0.00000  -0.00400  -0.00400   2.61641
    R3        2.67497   0.00176   0.00000  -0.00193  -0.00196   2.67301
    R4        2.90070   0.00328   0.00000  -0.00342  -0.00351   2.89720
    R5        1.83241  -0.00078   0.00000  -0.00146  -0.00146   1.83095
    R6        2.08089  -0.00014   0.00000  -0.00041  -0.00041   2.08048
    R7        2.73620  -0.00978   0.00000  -0.00402  -0.00392   2.73228
    R8        2.98782  -0.00581   0.00000  -0.00432  -0.00422   2.98359
    R9        2.87476  -0.00177   0.00000  -0.00583  -0.00583   2.86894
   R10        2.07144  -0.00007   0.00000  -0.00022  -0.00022   2.07122
   R11        2.69107  -0.00084   0.00000  -0.00248  -0.00248   2.68859
   R12        2.91352  -0.00108   0.00000  -0.00212  -0.00218   2.91134
   R13        1.82898  -0.00049   0.00000  -0.00091  -0.00091   1.82808
   R14        3.64347   0.00071   0.00000  -0.00895  -0.00891   3.63456
   R15        2.07643  -0.00008   0.00000  -0.00023  -0.00023   2.07620
   R16        2.65244  -0.00203   0.00000  -0.00449  -0.00449   2.64794
   R17        2.88720   0.00338   0.00000  -0.00416  -0.00424   2.88296
   R18        1.84134  -0.00114   0.00000  -0.00216  -0.00216   1.83918
   R19        2.07177   0.00015   0.00000   0.00045   0.00045   2.07222
   R20        2.65054  -0.00301   0.00000  -0.00580  -0.00581   2.64473
   R21        1.83839  -0.00028   0.00000  -0.00215  -0.00212   1.83626
   R22        2.06480   0.00000   0.00000   0.00001   0.00001   2.06481
   R23        2.07822   0.00012   0.00000   0.00037   0.00037   2.07859
   R24        2.66971  -0.00183   0.00000  -0.00420  -0.00420   2.66551
   R25        1.83197  -0.00059   0.00000  -0.00110  -0.00110   1.83088
    A1        1.95416   0.00107   0.00000   0.00894   0.00894   1.96309
    A2        1.89902  -0.00152   0.00000   0.00032   0.00029   1.89931
    A3        1.91708  -0.00158   0.00000  -0.00513  -0.00506   1.91202
    A4        1.88525   0.00064   0.00000  -0.00143  -0.00140   1.88384
    A5        1.89648  -0.00020   0.00000  -0.00289  -0.00296   1.89351
    A6        1.91132   0.00166   0.00000   0.00016   0.00015   1.91148
    A7        1.89287  -0.00291   0.00000  -0.01801  -0.01801   1.87486
    A8        1.90346   0.00048   0.00000   0.01487   0.01488   1.91834
    A9        1.88676  -0.00125   0.00000   0.00612   0.00616   1.89292
   A10        1.91304   0.00133   0.00000   0.01905   0.01924   1.93228
   A11        1.95593  -0.00214   0.00000   0.00160   0.00131   1.95725
   A12        1.84214   0.00042   0.00000  -0.02097  -0.02121   1.82094
   A13        1.96172   0.00126   0.00000  -0.01951  -0.01976   1.94195
   A14        1.93390   0.00585   0.00000   0.00183   0.00186   1.93576
   A15        1.87907   0.00364   0.00000  -0.00307  -0.00307   1.87600
   A16        1.88582  -0.00428   0.00000  -0.00025  -0.00025   1.88557
   A17        1.89958   0.00046   0.00000  -0.00128  -0.00128   1.89830
   A18        1.93250   0.00054   0.00000   0.00355   0.00356   1.93606
   A19        1.90744  -0.00105   0.00000  -0.00207  -0.00209   1.90535
   A20        1.95741   0.00080   0.00000   0.00282   0.00281   1.96023
   A21        1.90755  -0.00285   0.00000  -0.01767  -0.01767   1.88987
   A22        1.87305   0.00141   0.00000   0.00347   0.00343   1.87648
   A23        1.98704  -0.00031   0.00000  -0.00503  -0.00511   1.98193
   A24        1.90329  -0.00017   0.00000   0.00319   0.00312   1.90642
   A25        1.84219   0.00030   0.00000   0.01108   0.01114   1.85333
   A26        1.88039   0.00442   0.00000   0.00629   0.00630   1.88670
   A27        1.97145  -0.00495   0.00000  -0.01702  -0.01706   1.95439
   A28        1.89285  -0.00495   0.00000  -0.03071  -0.03071   1.86214
   A29        1.82204   0.00812   0.00000  -0.00184  -0.00166   1.82038
   A30        1.91484  -0.00075   0.00000  -0.00356  -0.00362   1.91122
   A31        1.97646  -0.00422   0.00000   0.00234   0.00228   1.97874
   A32        1.89190  -0.00236   0.00000  -0.00370  -0.00377   1.88813
   A33        2.01581  -0.00337   0.00000   0.00014   0.00006   2.01586
   A34        1.84151   0.00242   0.00000   0.00594   0.00600   1.84751
   A35        1.88641  -0.00538   0.00000  -0.02554  -0.02558   1.86082
   A36        1.91436   0.00125   0.00000   0.00523   0.00522   1.91958
   A37        1.89771   0.00045   0.00000  -0.00011  -0.00009   1.89762
   A38        1.96044  -0.00453   0.00000  -0.02119  -0.02119   1.93925
   A39        1.89597  -0.00048   0.00000   0.00101   0.00098   1.89695
   A40        1.84218   0.00120   0.00000   0.00356   0.00354   1.84572
   A41        1.95160   0.00223   0.00000   0.01222   0.01218   1.96378
   A42        1.92399  -0.00392   0.00000  -0.02430  -0.02430   1.89970
    D1        1.10337   0.00022   0.00000   0.00338   0.00338   1.10675
    D2       -0.98721   0.00103   0.00000  -0.00149  -0.00150  -0.98871
    D3       -3.05926  -0.00120   0.00000   0.00073   0.00074  -3.05852
    D4        1.01216  -0.00015   0.00000  -0.00394  -0.00403   1.00813
    D5        3.13716   0.00063   0.00000   0.00622   0.00613  -3.13989
    D6       -1.08345   0.00170   0.00000   0.00203   0.00186  -1.08159
    D7        2.14679  -0.00054   0.00000   0.00752   0.00750   2.15430
    D8        0.05890  -0.00084   0.00000   0.00515   0.00512   0.06402
    D9       -2.07072   0.00050   0.00000   0.00264   0.00262  -2.06810
   D10        0.00371  -0.00074   0.00000   0.00158   0.00157   0.00528
   D11       -2.08418  -0.00104   0.00000  -0.00079  -0.00082  -2.08500
   D12        2.06938   0.00031   0.00000  -0.00330  -0.00332   2.06606
   D13       -2.05185  -0.00234   0.00000   0.00488   0.00487  -2.04698
   D14        2.14344  -0.00264   0.00000   0.00251   0.00249   2.14593
   D15        0.01381  -0.00130   0.00000   0.00000  -0.00001   0.01380
   D16       -0.99791  -0.00179   0.00000  -0.01995  -0.02000  -1.01791
   D17        1.09050  -0.00438   0.00000  -0.00144  -0.00136   1.08914
   D18       -3.05198  -0.00381   0.00000  -0.03833  -0.03828  -3.09026
   D19        2.11199  -0.00112   0.00000   0.02349   0.02352   2.13551
   D20       -2.14693   0.00006   0.00000   0.01660   0.01666  -2.13028
   D21       -0.09472  -0.00006   0.00000   0.02316   0.02320  -0.07152
   D22        0.01383   0.00043   0.00000   0.00000  -0.00001   0.01382
   D23        2.03809   0.00161   0.00000  -0.00689  -0.00687   2.03122
   D24       -2.19288   0.00149   0.00000  -0.00033  -0.00033  -2.19321
   D25       -2.05749   0.00050   0.00000   0.03918   0.03919  -2.01831
   D26       -0.03323   0.00167   0.00000   0.03230   0.03232  -0.00091
   D27        2.01899   0.00155   0.00000   0.03885   0.03886   2.05785
   D28       -1.00492  -0.00062   0.00000   0.01066   0.01067  -0.99425
   D29        1.06604  -0.00022   0.00000   0.01487   0.01486   1.08091
   D30       -3.04773  -0.00016   0.00000   0.01583   0.01586  -3.03188
   D31        1.04269   0.00083   0.00000   0.02614   0.02589   1.06857
   D32        3.11366   0.00124   0.00000   0.03035   0.03008  -3.13945
   D33       -1.00012   0.00130   0.00000   0.03131   0.03107  -0.96905
   D34       -3.10350  -0.00078   0.00000   0.00262   0.00287  -3.10063
   D35       -1.03253  -0.00037   0.00000   0.00683   0.00706  -1.02547
   D36        1.13688  -0.00031   0.00000   0.00779   0.00805   1.14493
   D37        2.79542   0.00166   0.00000   0.02340   0.02341   2.81883
   D38        0.74158  -0.00048   0.00000   0.02525   0.02525   0.76683
   D39       -1.39414  -0.00009   0.00000   0.02338   0.02337  -1.37077
   D40        3.09372  -0.00431   0.00000   0.01095   0.01095   3.10467
   D41       -1.15765  -0.00321   0.00000   0.02400   0.02400  -1.13365
   D42        1.06140  -0.01019   0.00000   0.00000  -0.00002   1.06139
   D43       -1.14175  -0.00027   0.00000   0.00537   0.00538  -1.13637
   D44        0.89006   0.00083   0.00000   0.01842   0.01842   0.90849
   D45        3.10912  -0.00616   0.00000  -0.00558  -0.00559   3.10353
   D46        1.00813   0.00022   0.00000   0.01035   0.01036   1.01850
   D47        3.03995   0.00132   0.00000   0.02340   0.02341   3.06336
   D48       -1.02418  -0.00567   0.00000  -0.00060  -0.00061  -1.02479
   D49        1.03863  -0.00171   0.00000   0.01599   0.01607   1.05470
   D50        3.08837   0.00003   0.00000   0.02462   0.02464   3.11300
   D51       -1.14455   0.00293   0.00000   0.03004   0.02995  -1.11460
   D52       -1.03242   0.00502   0.00000   0.00000  -0.00001  -1.03243
   D53       -3.07262   0.00287   0.00000   0.00670   0.00667  -3.06595
   D54        1.14951   0.00361   0.00000   0.00169   0.00169   1.15119
   D55       -3.06004   0.00105   0.00000  -0.00919  -0.00920  -3.06925
   D56        1.18294  -0.00110   0.00000  -0.00248  -0.00252   1.18042
   D57       -0.87812  -0.00036   0.00000  -0.00749  -0.00750  -0.88562
   D58        1.19546   0.00070   0.00000  -0.01710  -0.01707   1.17839
   D59       -0.84474  -0.00145   0.00000  -0.01040  -0.01039  -0.85513
   D60       -2.90580  -0.00071   0.00000  -0.01541  -0.01537  -2.92117
   D61        1.28253   0.00236   0.00000  -0.00489  -0.00482   1.27770
   D62       -0.81718  -0.00262   0.00000  -0.00439  -0.00446  -0.82163
   D63       -2.90608   0.00062   0.00000  -0.00403  -0.00401  -2.91009
   D64       -1.09596   0.00084   0.00000   0.03438   0.03443  -1.06153
   D65        3.10178   0.00106   0.00000   0.03749   0.03751   3.13929
   D66        1.04329  -0.00026   0.00000   0.02769   0.02762   1.07091
         Item               Value     Threshold  Converged?
 Maximum Force            0.004954     0.000450     NO 
 RMS     Force            0.001154     0.000300     NO 
 Maximum Displacement     0.253535     0.001800     NO 
 RMS     Displacement     0.040673     0.001200     NO 
 Predicted change in Energy=-6.792766D-04
 GradGradGradGradGradGradGradGradGradGradGradGradGradGradGradGradGradGrad

                          Input orientation:                          
 ---------------------------------------------------------------------
 Center     Atomic      Atomic             Coordinates (Angstroms)
 Number     Number       Type             X           Y           Z
 ---------------------------------------------------------------------
      1          6           0      -23.729521  -12.215967  -17.390904
      2          1           0      -23.295963  -12.971196  -18.070117
      3          8           0      -24.727946  -12.738521  -16.586512
      4          1           0      -24.321688  -13.411547  -16.020161
      5          6           0      -21.627608  -11.153385  -17.326778
      6          1           0      -21.215252  -11.915683  -18.005701
      7          8           0      -22.707291  -11.718937  -16.548995
      8          6           0      -24.320402  -11.065070  -18.213570
      9          1           0      -25.375589  -10.967875  -17.933482
     10          8           0      -24.188617  -11.395347  -19.591155
     11          1           0      -24.800747  -10.841798  -20.095833
     12          6           0      -23.578747   -9.764490  -17.850350
     13          1           0      -23.991271   -8.962381  -18.477678
     14          8           0      -23.773124   -9.361109  -16.522589
     15          1           0      -23.433802  -10.078983  -15.959791
     16          6           0      -22.099321   -9.918183  -18.189640
     17          1           0      -21.575581   -9.015332  -17.853449
     18          8           0      -21.803700  -10.046938  -19.551520
     19          1           0      -22.421013  -10.706913  -19.908695
     20          6           0      -20.595558  -10.740686  -16.292654
     21          1           0      -20.253476  -11.616639  -15.736267
     22          1           0      -19.734504  -10.294474  -16.811645
     23          8           0      -21.156941   -9.872685  -15.332959
     24          1           0      -21.474941   -9.074594  -15.780857
 ---------------------------------------------------------------------
                    Distance matrix (angstroms):
                    1          2          3          4          5
     1  C    0.000000
     2  H    1.104388   0.000000
     3  O    1.384544   2.075041   0.000000
     4  H    1.912854   2.334169   0.968898   0.000000
     5  C    2.356105   2.576896   3.559879   3.750282   0.000000
     6  H    2.605703   2.334012   3.876876   3.978683   1.100941
     7  O    1.414497   2.056331   2.263626   2.398097   1.445860
     8  C    1.533130   2.168726   2.369356   3.212009   2.836431
     9  H    2.135806   2.890814   2.317101   3.277657   3.801297
    10  O    2.392759   2.365098   3.335097   4.103020   3.427056
    11  H    3.217531   3.301853   3.989761   4.841922   4.222980
    12  C    2.498712   3.226643   3.429694   4.147599   2.451550
    13  H    3.440264   4.089029   4.287007   5.093490   3.422276
    14  O    2.984307   3.956672   3.510368   4.118180   2.908988
    15  H    2.588868   3.582928   3.023363   3.449343   2.507057
    16  C    2.928369   3.281330   4.175403   4.674307   1.578850
    17  H    3.885546   4.319203   5.040304   5.498068   2.202580
    18  O    3.616868   3.601761   4.958538   5.489204   2.490926
    19  H    3.213830   3.045140   4.526175   5.103754   2.737722
    20  C    3.633776   3.927688   4.599382   4.592580   1.518177
    21  H    3.896139   4.066744   4.690673   4.455630   2.152340
    22  H    4.470776   4.629533   5.564037   5.602218   2.141713
    23  O    4.042805   4.654913   4.747260   4.797021   2.415996
    24  H    4.188508   4.872405   4.965428   5.193303   2.595101
                    6          7          8          9         10
     6  H    0.000000
     7  O    2.094488   0.000000
     8  C    3.226253   2.408419   0.000000
     9  H    4.267547   3.098502   1.096045   0.000000
    10  O    3.409591   3.399085   1.422741   2.083150   0.000000
    11  H    4.286917   4.210937   1.955376   2.241004   0.967377
    12  C    3.199668   2.504560   1.540613   2.164182   2.462121
    13  H    4.080568   3.600976   2.144616   2.496896   2.682927
    14  O    3.907452   2.587673   2.462197   2.672118   3.704978
    15  H    3.532871   1.887970   2.614947   2.907941   3.935654
    16  C    2.192127   2.510789   2.499825   3.449841   2.917433
    17  H    2.926612   3.208091   3.444583   4.273042   3.938534
    18  O    2.495604   3.553480   3.026630   4.027972   2.740001
    19  H    2.556633   3.520473   2.570876   3.563577   1.923329
    20  C    2.167756   2.341389   4.203523   5.058915   4.921256
    21  H    2.482896   2.586928   4.793866   5.611122   5.513118
    22  H    2.499341   3.306893   4.856920   5.790840   5.364394
    23  O    3.364638   2.700181   4.441530   5.075347   5.444428
    24  H    3.617894   3.016831   4.239898   4.840801   5.221906
                   11         12         13         14         15
    11  H    0.000000
    12  C    2.774179   0.000000
    13  H    2.608809   1.098679   0.000000
    14  O    4.002065   1.401231   2.007224   0.000000
    15  H    4.422360   1.922012   2.810218   0.973254   0.000000
    16  C    3.432832   1.525596   2.139158   2.427140   2.603637
    17  H    4.331969   2.138673   2.495601   2.592286   2.858371
    18  O    3.148073   2.474783   2.667371   3.677420   3.944462
    19  H    2.390888   2.542694   2.748984   3.886529   4.124789
    20  C    5.670803   3.504110   4.412206   3.471747   2.933305
    21  H    6.346957   4.353990   5.341491   4.253661   3.539607
    22  H    6.062365   4.017213   4.761323   4.155138   3.802223
    23  O    6.074658   3.494869   4.330281   2.919133   2.370564
    24  H    5.727391   3.030636   3.690169   2.431851   2.208608
                   16         17         18         19         20
    16  C    0.000000
    17  H    1.096571   0.000000
    18  O    1.399531   1.999924   0.000000
    19  H    1.918523   2.792891   0.971708   0.000000
    20  C    2.556632   2.524554   3.544165   4.050824   0.000000
    21  H    3.508694   3.605166   4.407189   4.789047   1.092648
    22  H    2.762757   2.472069   3.442349   4.120577   1.099942
    23  O    3.008451   2.695030   4.271408   4.819873   1.410529
    24  H    2.627494   2.075880   3.907868   4.538564   1.952207
                   21         22         23         24
    21  H    0.000000
    22  H    1.781541   0.000000
    23  O    2.005064   2.094695   0.000000
    24  H    2.820630   2.362150   0.968858   0.000000
 Symmetry turned off by external request.
 Stoichiometry    C6H12O6
 Framework group  C1[X(C6H12O6)]
 Deg. of freedom    66
 Full point group                 C1      NOp   1
 Rotational constants (GHZ):      1.2206295      0.8944902      0.7080343
 Standard basis: 6-31G(d) (6D, 7F)
 Integral buffers will be    131072 words long.
 Raffenetti 2 integral format.
 Two-electron integral symmetry is turned off.
   204 basis functions,   384 primitive gaussians,   204 cartesian basis functions
    48 alpha electrons       48 beta electrons
       nuclear repulsion energy       863.4609693456 Hartrees.
 NAtoms=   24 NActive=   24 NUniq=   24 SFac= 1.00D+00 NAtFMM=   50 NAOKFM=F Big=F
 One-electron integrals computed using PRISM.
 NBasis=   204 RedAO= T  NBF=   204
 NBsUse=   204 1.00D-06 NBFU=   204
 Initial guess read from the read-write file.
 B after Tr=     0.000000    0.000000    0.000000
         Rot=    1.000000    0.000000    0.000000    0.000000 Ang=   0.00 deg.
 Harris functional with IExCor= 1009 diagonalized for initial guess.
 ExpMin= 1.61D-01 ExpMax= 5.48D+03 ExpMxC= 8.25D+02 IAcc=1 IRadAn=         1 AccDes= 0.00D+00
 HarFok:  IExCor= 1009 AccDes= 0.00D+00 IRadAn=         1 IDoV= 1
 ScaDFX=  1.000000  1.000000  1.000000  1.000000
 FoFCou: FMM=F IPFlag=           0 FMFlag=      100000 FMFlg1=           0
         NFxFlg=           0 DoJE=T BraDBF=F KetDBF=T FulRan=T
         Omega=  0.000000  0.000000  1.000000  0.000000  0.000000 ICntrl=     500 IOpCl=  0
         NMat0=    1 NMatS0=    1 NMatT0=    0 NMatD0=    1 NMtDS0=    0 NMtDT0=    0
         I1Cent=           4 NGrid=           0.
 Symmetry not used in FoFCou.
 Requested convergence on RMS density matrix=1.00D-08 within  64 cycles.
 Requested convergence on MAX density matrix=1.00D-06.
 Requested convergence on             energy=1.00D-06.
 No special actions if energy rises.
 Keep R1 ints in memory in canonical form, NReq=223266811.
 Integral accuracy reduced to 1.0D-05 until final iterations.
 Initial convergence to 1.0D-05 achieved.  Increase integral accuracy.
 SCF Done:  E(RM062X) =  -686.874678275     A.U. after   13 cycles
             Convg  =    0.5973D-08             -V/T =  2.0077
 QCSCF skips out because SCF is already converged.
 Calling FoFJK, ICntrl=      2127 FMM=F ISym2X=0 I1Cent= 0 IOpClX= 0 NMat=1 NMatS=1 NMatT=0.
 -------------------------------------------------------------------
 Center     Atomic                   Forces (Hartrees/Bohr)
 Number     Number              X              Y              Z
 -------------------------------------------------------------------
      1        6          -0.001212548    0.000067701   -0.000296689
      2        1           0.000058720   -0.000098854    0.000026756
      3        8           0.000586828   -0.000412585   -0.000179161
      4        1          -0.000227000   -0.000336122    0.000535699
      5        6           0.001330163    0.003401851    0.004670246
      6        1          -0.000801789    0.000066544    0.000190337
      7        8           0.012182277   -0.005862564   -0.013438646
      8        6          -0.006447198    0.001358262    0.009965703
      9        1          -0.000073370   -0.000142277    0.000003918
     10        8           0.000200213   -0.000307263   -0.000042853
     11        1           0.000277299    0.000588105   -0.000500066
     12        6          -0.009152620    0.012628221   -0.020390464
     13        1           0.000178697    0.000025617   -0.000126304
     14        8          -0.001814779    0.002040431    0.000096492
     15        1          -0.000727848   -0.000194879    0.002022284
     16        6           0.002651409   -0.013419479    0.016135516
     17        1           0.000123811    0.000105872   -0.000106335
     18        8          -0.000205973   -0.000206891   -0.000124894
     19        1          -0.000363253   -0.000543498   -0.001088518
     20        6           0.001608150   -0.000487468    0.000971100
     21        1           0.000235353   -0.000089578   -0.000148960
     22        1           0.000343408    0.000147311    0.000664715
     23        8           0.002122068    0.000594105    0.000594793
     24        1          -0.000872017    0.001077439    0.000565331
 -------------------------------------------------------------------
 Cartesian Forces:  Max     0.020390464 RMS     0.004827059

 GradGradGradGradGradGradGradGradGradGradGradGradGradGradGradGradGradGrad
 Berny optimization.
 Using GEDIIS/GDIIS optimizer.
 Internal  Forces:  Max     0.010427820 RMS     0.002764771
 Search for a local minimum.
 Step number   2 out of a maximum of  143
 All quantities printed in internal units (Hartrees-Bohrs-Radians)
 Mixed Optimization -- RFO/linear search
 Update second derivatives using D2CorX and points    1    2
 DE= -2.44D-04 DEPred=-6.79D-04 R= 3.59D-01
 Trust test= 3.59D-01 RLast= 1.62D-01 DXMaxT set to 3.00D-01
 ITU=  0  0
 Use linear search instead of GDIIS.
     Eigenvalues ---    0.00483   0.01315   0.01489   0.01616   0.01675
     Eigenvalues ---    0.01743   0.01868   0.02036   0.02408   0.03564
     Eigenvalues ---    0.04441   0.04803   0.05019   0.05079   0.05478
     Eigenvalues ---    0.05617   0.05950   0.06101   0.06241   0.06495
     Eigenvalues ---    0.06558   0.06875   0.08058   0.08573   0.10350
     Eigenvalues ---    0.11341   0.11564   0.13901   0.14519   0.15412
     Eigenvalues ---    0.15740   0.16000   0.16000   0.16204   0.16793
     Eigenvalues ---    0.17745   0.19030   0.22307   0.23962   0.25714
     Eigenvalues ---    0.27213   0.27965   0.32499   0.33255   0.33569
     Eigenvalues ---    0.33710   0.33815   0.34089   0.34111   0.34509
     Eigenvalues ---    0.35652   0.39059   0.41810   0.43718   0.44903
     Eigenvalues ---    0.46927   0.47926   0.51391   0.52681   0.53448
     Eigenvalues ---    0.53677   0.539181000.000001000.000001000.00000
     Eigenvalues --- 1000.000001000.000001000.000001000.000001000.00000
     Eigenvalues --- 1000.000001000.000001000.000001000.000001000.00000
     Eigenvalues --- 1000.000001000.000001000.000001000.000001000.00000
     Eigenvalues --- 1000.000001000.000001000.000001000.000001000.00000
     Eigenvalues --- 1000.000001000.000001000.000001000.000001000.00000
     Eigenvalues --- 1000.000001000.000001000.000001000.000001000.00000
     Eigenvalues --- 1000.000001000.000001000.000001000.000001000.00000
     Eigenvalues --- 1000.000001000.000001000.000001000.000001000.00000
     Eigenvalues --- 1000.000001000.000001000.000001000.000001000.00000
     Eigenvalues --- 1000.000001000.000001000.000001000.000001000.00000
     Eigenvalues --- 1000.000001000.000001000.000001000.000001000.00000
     Eigenvalues --- 1000.000001000.000001000.000001000.000001000.00000
     Eigenvalues --- 1000.000001000.000001000.000001000.000001000.00000
     Eigenvalues --- 1000.000001000.000001000.00000
 RFO step:  Lambda=-2.10982803D-04 EMin= 4.82996499D-03
 Quartic linear search produced a step of -0.38374.
 Iteration  1 RMS(Cart)=  0.01761558 RMS(Int)=  0.00016673
 Iteration  2 RMS(Cart)=  0.00020580 RMS(Int)=  0.00002620
 Iteration  3 RMS(Cart)=  0.00000003 RMS(Int)=  0.00002620
 Iteration  1 RMS(Cart)=  0.00000230 RMS(Int)=  0.00000207
 Iteration  2 RMS(Cart)=  0.00000162 RMS(Int)=  0.00000224
 Iteration  3 RMS(Cart)=  0.00000118 RMS(Int)=  0.00000254
 Iteration  4 RMS(Cart)=  0.00000089 RMS(Int)=  0.00000285
 Variable       Old X    -DE/DX   Delta X   Delta X   Delta X     New X
                                 (Linear)    (Quad)   (Total)
    R1        2.08699   0.00007  -0.00039   0.00067   0.00028   2.08727
    R2        2.61641   0.00024   0.00153  -0.00180  -0.00027   2.61614
    R3        2.67301   0.00333   0.00075   0.00100   0.00175   2.67476
    R4        2.89720   0.00543   0.00135   0.00153   0.00290   2.90009
    R5        1.83095   0.00045   0.00056  -0.00025   0.00031   1.83126
    R6        2.08048  -0.00046   0.00016  -0.00107  -0.00091   2.07957
    R7        2.73228  -0.00677   0.00150   0.00060   0.00207   2.73435
    R8        2.98359  -0.00191   0.00162   0.00368   0.00528   2.98887
    R9        2.86894   0.00448   0.00224   0.00601   0.00825   2.87719
   R10        2.07122   0.00006   0.00008  -0.00001   0.00008   2.07130
   R11        2.68859   0.00054   0.00095  -0.00069   0.00026   2.68885
   R12        2.91134   0.00016   0.00084  -0.00113  -0.00025   2.91108
   R13        1.82808   0.00042   0.00035   0.00000   0.00035   1.82843
   R14        3.63456   0.00023   0.00342  -0.01242  -0.00903   3.62553
   R15        2.07620   0.00003   0.00009  -0.00008   0.00001   2.07622
   R16        2.64794   0.00289   0.00172   0.00158   0.00330   2.65124
   R17        2.88296   0.00670   0.00163   0.00044   0.00211   2.88507
   R18        1.83918   0.00105   0.00083   0.00010   0.00093   1.84011
   R19        2.07222   0.00011  -0.00017   0.00044   0.00027   2.07248
   R20        2.64473   0.00106   0.00223  -0.00127   0.00096   2.64570
   R21        1.83626   0.00119   0.00082  -0.00048   0.00031   1.83657
   R22        2.06481   0.00007   0.00000   0.00013   0.00012   2.06493
   R23        2.07859   0.00002  -0.00014   0.00022   0.00008   2.07867
   R24        2.66551   0.00132   0.00161  -0.00035   0.00126   2.66677
   R25        1.83088   0.00092   0.00042   0.00048   0.00090   1.83178
    A1        1.96309   0.00015  -0.00343   0.00314  -0.00029   1.96281
    A2        1.89931  -0.00255  -0.00011  -0.00207  -0.00217   1.89714
    A3        1.91202  -0.00152   0.00194  -0.00407  -0.00215   1.90987
    A4        1.88384   0.00101   0.00054  -0.00121  -0.00069   1.88316
    A5        1.89351   0.00077   0.00114   0.00067   0.00182   1.89534
    A6        1.91148   0.00227  -0.00006   0.00369   0.00365   1.91513
    A7        1.87486   0.00091   0.00691  -0.00625   0.00066   1.87553
    A8        1.91834  -0.00044  -0.00571  -0.00038  -0.00610   1.91224
    A9        1.89292  -0.00170  -0.00236  -0.00360  -0.00597   1.88695
   A10        1.93228  -0.00120  -0.00738   0.00525  -0.00218   1.93009
   A11        1.95725  -0.00343  -0.00050   0.00290   0.00249   1.95974
   A12        1.82094   0.00266   0.00814  -0.00106   0.00713   1.82806
   A13        1.94195   0.00420   0.00758  -0.00279   0.00484   1.94679
   A14        1.93576   0.00589  -0.00072  -0.00312  -0.00387   1.93190
   A15        1.87600   0.00449   0.00118  -0.00003   0.00113   1.87713
   A16        1.88557  -0.00582   0.00010  -0.00124  -0.00115   1.88442
   A17        1.89830   0.00193   0.00049  -0.00006   0.00045   1.89875
   A18        1.93606   0.00057  -0.00137   0.00205   0.00068   1.93674
   A19        1.90535  -0.00196   0.00080  -0.00060   0.00021   1.90556
   A20        1.96023   0.00099  -0.00108  -0.00016  -0.00123   1.95900
   A21        1.88987   0.00047   0.00678  -0.00774  -0.00096   1.88892
   A22        1.87648   0.00216  -0.00132  -0.00427  -0.00561   1.87087
   A23        1.98193  -0.00031   0.00196   0.00405   0.00593   1.98785
   A24        1.90642  -0.00279  -0.00120  -0.00052  -0.00173   1.90468
   A25        1.85333  -0.00179  -0.00428  -0.00322  -0.00744   1.84589
   A26        1.88670   0.00430  -0.00242  -0.00635  -0.00879   1.87791
   A27        1.95439  -0.00105   0.00655   0.00908   0.01558   1.96997
   A28        1.86214   0.00318   0.01178  -0.00435   0.00743   1.86957
   A29        1.82038   0.01031   0.00064  -0.00029   0.00030   1.82068
   A30        1.91122  -0.00083   0.00139  -0.00033   0.00108   1.91230
   A31        1.97874  -0.00550  -0.00088  -0.00055  -0.00142   1.97732
   A32        1.88813  -0.00250   0.00145  -0.00029   0.00117   1.88930
   A33        2.01586  -0.00386  -0.00002  -0.00064  -0.00062   2.01524
   A34        1.84751   0.00228  -0.00230   0.00204  -0.00029   1.84722
   A35        1.86082   0.00119   0.00982  -0.00618   0.00367   1.86449
   A36        1.91958  -0.00087  -0.00200   0.00052  -0.00148   1.91810
   A37        1.89762  -0.00026   0.00003   0.00056   0.00058   1.89820
   A38        1.93925   0.00368   0.00813  -0.00010   0.00802   1.94727
   A39        1.89695   0.00004  -0.00038  -0.00303  -0.00339   1.89355
   A40        1.84572  -0.00097  -0.00136   0.00030  -0.00106   1.84467
   A41        1.96378  -0.00170  -0.00467   0.00164  -0.00302   1.96076
   A42        1.89970   0.00212   0.00932  -0.00497   0.00435   1.90405
    D1        1.10675  -0.00031  -0.00130   0.00295   0.00165   1.10841
    D2       -0.98871   0.00209   0.00058   0.00440   0.00498  -0.98373
    D3       -3.05852  -0.00160  -0.00028   0.00031   0.00002  -3.05850
    D4        1.00813   0.00027   0.00155  -0.00073   0.00084   1.00897
    D5       -3.13989  -0.00046  -0.00235   0.00111  -0.00122  -3.14112
    D6       -1.08159   0.00230  -0.00071   0.00327   0.00259  -1.07900
    D7        2.15430  -0.00115  -0.00288   0.00352   0.00064   2.15494
    D8        0.06402  -0.00112  -0.00196   0.00178  -0.00017   0.06385
    D9       -2.06810   0.00005  -0.00101   0.00276   0.00175  -2.06635
   D10        0.00528  -0.00087  -0.00060   0.00178   0.00118   0.00646
   D11       -2.08500  -0.00084   0.00031   0.00004   0.00037  -2.08463
   D12        2.06606   0.00033   0.00127   0.00102   0.00229   2.06835
   D13       -2.04698  -0.00381  -0.00187   0.00076  -0.00111  -2.04809
   D14        2.14593  -0.00378  -0.00096  -0.00098  -0.00191   2.14401
   D15        0.01380  -0.00261   0.00000   0.00000   0.00001   0.01381
   D16       -1.01791  -0.00136   0.00768  -0.00101   0.00668  -1.01123
   D17        1.08914  -0.00609   0.00052  -0.00391  -0.00340   1.08574
   D18       -3.09026  -0.00121   0.01469  -0.00638   0.00831  -3.08194
   D19        2.13551  -0.00197  -0.00903  -0.00107  -0.01009   2.12542
   D20       -2.13028   0.00008  -0.00639  -0.00170  -0.00810  -2.13838
   D21       -0.07152  -0.00109  -0.00890   0.00030  -0.00863  -0.08014
   D22        0.01382   0.00194   0.00000   0.00000   0.00001   0.01384
   D23        2.03122   0.00399   0.00264  -0.00063   0.00201   2.03323
   D24       -2.19321   0.00282   0.00013   0.00137   0.00148  -2.19172
   D25       -2.01831  -0.00193  -0.01504   0.00129  -0.01374  -2.03205
   D26       -0.00091   0.00012  -0.01240   0.00067  -0.01175  -0.01266
   D27        2.05785  -0.00105  -0.01491   0.00266  -0.01227   2.04558
   D28       -0.99425   0.00019  -0.00410   0.01934   0.01524  -0.97901
   D29        1.08091  -0.00043  -0.00570   0.01630   0.01060   1.09151
   D30       -3.03188  -0.00029  -0.00608   0.01871   0.01262  -3.01926
   D31        1.06857   0.00059  -0.00993   0.02087   0.01101   1.07958
   D32       -3.13945  -0.00003  -0.01154   0.01784   0.00637  -3.13308
   D33       -0.96905   0.00011  -0.01192   0.02024   0.00839  -0.96067
   D34       -3.10063   0.00034  -0.00110   0.02221   0.02104  -3.07959
   D35       -1.02547  -0.00028  -0.00271   0.01918   0.01640  -1.00907
   D36        1.14493  -0.00014  -0.00309   0.02158   0.01842   1.16335
   D37        2.81883   0.00141  -0.00898   0.03494   0.02595   2.84478
   D38        0.76683  -0.00085  -0.00969   0.03456   0.02487   0.79170
   D39       -1.37077   0.00057  -0.00897   0.03395   0.02499  -1.34577
   D40        3.10467  -0.00562  -0.00420  -0.01017  -0.01435   3.09032
   D41       -1.13365  -0.00661  -0.00921  -0.01459  -0.02379  -1.15744
   D42        1.06139  -0.01043   0.00001   0.00000   0.00001   1.06139
   D43       -1.13637  -0.00026  -0.00206  -0.01058  -0.01263  -1.14900
   D44        0.90849  -0.00124  -0.00707  -0.01500  -0.02206   0.88642
   D45        3.10353  -0.00506   0.00215  -0.00041   0.00173   3.10526
   D46        1.01850  -0.00026  -0.00398  -0.00849  -0.01246   1.00604
   D47        3.06336  -0.00125  -0.00898  -0.01290  -0.02189   3.04146
   D48       -1.02479  -0.00507   0.00023   0.00168   0.00191  -1.02288
   D49        1.05470  -0.00248  -0.00617   0.00567  -0.00044   1.05426
   D50        3.11300  -0.00117  -0.00945   0.00061  -0.00884   3.10416
   D51       -1.11460   0.00236  -0.01149  -0.00410  -0.01565  -1.13026
   D52       -1.03243   0.00500   0.00001   0.00000   0.00001  -1.03242
   D53       -3.06595   0.00197  -0.00256   0.00065  -0.00190  -3.06785
   D54        1.15119   0.00330  -0.00065  -0.00134  -0.00198   1.14921
   D55       -3.06925   0.00155   0.00353   0.00889   0.01240  -3.05684
   D56        1.18042  -0.00148   0.00097   0.00954   0.01049   1.19091
   D57       -0.88562  -0.00015   0.00288   0.00754   0.01041  -0.87522
   D58        1.17839   0.00169   0.00655   0.01156   0.01814   1.19653
   D59       -0.85513  -0.00134   0.00399   0.01221   0.01623  -0.83891
   D60       -2.92117  -0.00001   0.00590   0.01022   0.01614  -2.90503
   D61        1.27770   0.00316   0.00185  -0.00628  -0.00444   1.27326
   D62       -0.82163  -0.00338   0.00171  -0.00494  -0.00322  -0.82486
   D63       -2.91009   0.00046   0.00154  -0.00565  -0.00412  -2.91421
   D64       -1.06153  -0.00013  -0.01321   0.02905   0.01583  -1.04571
   D65        3.13929  -0.00048  -0.01439   0.02829   0.01389  -3.13000
   D66        1.07091   0.00101  -0.01060   0.03088   0.02030   1.09121
         Item               Value     Threshold  Converged?
 Maximum Force            0.004477     0.000450     NO 
 RMS     Force            0.001006     0.000300     NO 
 Maximum Displacement     0.086120     0.001800     NO 
 RMS     Displacement     0.017673     0.001200     NO 
 Predicted change in Energy=-2.781040D-04
 GradGradGradGradGradGradGradGradGradGradGradGradGradGradGradGradGradGrad

                          Input orientation:                          
 ---------------------------------------------------------------------
 Center     Atomic      Atomic             Coordinates (Angstroms)
 Number     Number       Type             X           Y           Z
[...]
     8  C    1.534635   2.170230   2.371704   3.215923   2.837905
     9  H    2.138261   2.891311   2.321654   3.282725   3.805416
    10  O    2.391005   2.362305   3.336788   4.107062   3.422530
    11  H    3.229561   3.315624   4.032752   4.883878   4.174154
    12  C    2.500393   3.228327   3.431506   4.149683   2.454739
    13  H    3.442246   4.089627   4.291149   5.097543   3.423617
    14  O    2.995891   3.968802   3.519379   4.127350   2.925677
    15  H    2.582288   3.588533   2.987269   3.421413   2.568077
    16  C    2.929557   3.282410   4.176508   4.676537   1.581600
    17  H    3.888436   4.320847   5.043824   5.501811   2.205647
    18  O    3.614128   3.598500   4.955802   5.489236   2.493263
    19  H    3.204287   3.025225   4.520007   5.094911   2.722838
    20  C    3.646415   3.933227   4.614461   4.605864   1.522332
    21  H    3.910854   4.071197   4.710627   4.474931   2.155413
    22  H    4.475554   4.626020   5.572701   5.611161   2.143024
    23  O    4.081245   4.682851   4.790493   4.831923   2.429590
    24  H    4.125435   4.817481   4.892129   5.117363   2.560734
                    6          7          8          9         10
     6  H    0.000000
     7  O    2.089076   0.000000
     8  C    3.215377   2.411835   0.000000
     9  H    4.257878   3.104923   1.096422   0.000000
    10  O    3.391089   3.397934   1.422606   2.082902   0.000000
    11  H    4.228367   4.196407   1.955411   2.274775   0.968522
    12  C    3.194441   2.509287   1.540271   2.167057   2.460133
    13  H    4.072700   3.605853   2.144802   2.501259   2.680538
    14  O    3.917740   2.605718   2.466480   2.677076   3.707756
    15  H    3.581565   1.918784   2.597222   2.868457   3.928280
    16  C    2.190663   2.514574   2.499785   3.452331   2.912114
    17  H    2.928524   3.213792   3.446095   4.278529   3.933648
    18  O    2.493116   3.555243   3.022154   4.023933   2.728232
    19  H    2.520666   3.510921   2.579096   3.575373   1.925202
    20  C    2.168729   2.356824   4.217613   5.079985   4.922951
    21  H    2.479956   2.606030   4.809010   5.634786   5.512839
    22  H    2.497385   3.317854   4.861749   5.802845   5.353814
    23  O    3.372723   2.734204   4.486095   5.131641   5.475716
    24  H    3.595292   2.953291   4.186508   4.786968   5.176987
                   11         12         13         14         15
    11  H    0.000000
    12  C    2.721040   0.000000
    13  H    2.540284   1.098949   0.000000
    14  O    3.966929   1.404976   2.006807   0.000000
    15  H    4.384309   1.931324   2.813287   0.974263   0.000000
    16  C    3.354932   1.526651   2.136681   2.437264   2.655711
    17  H    4.246654   2.141966   2.495294   2.604688   2.925209
    18  O    3.047241   2.473687   2.661059   3.684475   3.988080
    19  H    2.326135   2.560820   2.774631   3.907719   4.160587
    20  C    5.623423   3.521685   4.427028   3.510330   3.033831
    21  H    6.309423   4.372507   5.357229   4.297344   3.637695
    22  H    5.988715   4.028489   4.768775   4.190024   3.903511
    23  O    6.060980   3.540805   4.375049   2.988256   2.501628
    24  H    5.630848   2.991539   3.666745   2.387687   2.207860
                   16         17         18         19         20
    16  C    0.000000
    17  H    1.096460   0.000000
    18  O    1.400231   2.000411   0.000000
    19  H    1.923176   2.799454   0.972301   0.000000
    20  C    2.564516   2.533739   3.545473   4.035557   0.000000
    21  H    3.515177   3.613843   4.404268   4.763796   1.092951
    22  H    2.764892   2.479784   3.434714   4.093108   1.100445
    23  O    3.032441   2.714296   4.288008   4.833967   1.410237
    24  H    2.613236   2.096371   3.909157   4.524986   1.960154
                   21         22         23         24
    21  H    0.000000
    22  H    1.779467   0.000000
    23  O    2.005991   2.091352   0.000000
    24  H    2.824487   2.417083   0.970444   0.000000
 Symmetry turned off by external request.
 Stoichiometry    C6H12O6
 Framework group  C1[X(C6H12O6)]
 Deg. of freedom    66
 Full point group                 C1      NOp   1
 Rotational constants (GHZ):      1.2162442      0.8870431      0.7046705

 **********************************************************************

            Population analysis using the SCF density.

 **********************************************************************

 Alpha  occ. eigenvalues --  -19.67865 -19.66839 -19.66214 -19.64124 -19.63734
 Alpha  occ. eigenvalues --  -19.63685 -10.66295 -10.61402 -10.61019 -10.60610
 Alpha  occ. eigenvalues --  -10.60429 -10.59708  -1.22112  -1.18088  -1.16175
 Alpha  occ. eigenvalues --   -1.14441  -1.14206  -1.13299  -0.88111  -0.87438
 Alpha  occ. eigenvalues --   -0.79475  -0.74568  -0.71780  -0.67298  -0.65078
 Alpha  occ. eigenvalues --   -0.63148  -0.62017  -0.59317  -0.57402  -0.56292
 Alpha  occ. eigenvalues --   -0.54160  -0.52472  -0.51358  -0.49868  -0.48510
 Alpha  occ. eigenvalues --   -0.47850  -0.46807  -0.45747  -0.44935  -0.43153
 Alpha  occ. eigenvalues --   -0.41296  -0.40491  -0.39515  -0.38984  -0.36963
 Alpha  occ. eigenvalues --   -0.34683  -0.33236  -0.31484
 Alpha virt. eigenvalues --    0.08226   0.10820   0.12171   0.13732   0.15192
 Alpha virt. eigenvalues --    0.16179   0.17490   0.18317   0.20002   0.20190
 Alpha virt. eigenvalues --    0.21209   0.21548   0.22890   0.23929   0.25016
 Alpha virt. eigenvalues --    0.26855   0.27735   0.28563   0.29089   0.32248
 Alpha virt. eigenvalues --    0.35491   0.36046   0.39208   0.40657   0.56933
 Alpha virt. eigenvalues --    0.58172   0.59584   0.60886   0.62443   0.63140
 Alpha virt. eigenvalues --    0.64154   0.65066   0.67133   0.68614   0.69305
 Alpha virt. eigenvalues --    0.71583   0.73899   0.76340   0.77969   0.81334
 Alpha virt. eigenvalues --    0.83428   0.84977   0.85756   0.87273   0.87446
 Alpha virt. eigenvalues --    0.89330   0.89975   0.90608   0.92509   0.93073
 Alpha virt. eigenvalues --    0.94412   0.95140   0.96260   0.97679   0.99161
 Alpha virt. eigenvalues --    1.01848   1.03006   1.03948   1.05431   1.07242
 Alpha virt. eigenvalues --    1.08943   1.11695   1.13187   1.14228   1.15159
 Alpha virt. eigenvalues --    1.18763   1.21763   1.23756   1.25338   1.28386
 Alpha virt. eigenvalues --    1.30732   1.31092   1.33967   1.35900   1.38784
 Alpha virt. eigenvalues --    1.39844   1.45389   1.47117   1.50457   1.54122
 Alpha virt. eigenvalues --    1.56706   1.58083   1.61845   1.62686   1.63848
 Alpha virt. eigenvalues --    1.67241   1.72004   1.72622   1.74434   1.77648
 Alpha virt. eigenvalues --    1.78958   1.80152   1.82770   1.84996   1.86043
 Alpha virt. eigenvalues --    1.86974   1.88713   1.91905   1.92363   1.94838
 Alpha virt. eigenvalues --    1.96826   1.99485   2.02208   2.04076   2.04806
 Alpha virt. eigenvalues --    2.06111   2.08912   2.11122   2.13301   2.16504
 Alpha virt. eigenvalues --    2.17875   2.20491   2.23110   2.24758   2.25934
 Alpha virt. eigenvalues --    2.29384   2.30855   2.32858   2.39032   2.41677
 Alpha virt. eigenvalues --    2.43669   2.44883   2.46164   2.47822   2.51310
 Alpha virt. eigenvalues --    2.54644   2.57703   2.58282   2.59639   2.63953
 Alpha virt. eigenvalues --    2.66163   2.68421   2.70012   2.73343   2.76621
 Alpha virt. eigenvalues --    2.78876   2.84594   2.87869   2.91593   2.95451
 Alpha virt. eigenvalues --    2.96293   3.02988   3.05484   3.09400   3.75007
 Alpha virt. eigenvalues --    3.82258   3.85995   3.93587   4.03471   4.16642
 Alpha virt. eigenvalues --    4.32628   4.40804   4.47225   4.62746   4.81066
 Alpha virt. eigenvalues --    4.87093
          Condensed to atoms (all electrons):
              1          2          3          4          5          6
     1  C    4.667403   0.393396   0.270192  -0.022787  -0.017968  -0.005303
     2  H    0.393396   0.613836  -0.038174  -0.005504  -0.004530   0.011675
     3  O    0.270192  -0.038174   8.262819   0.244592   0.003511   0.000010
     4  H   -0.022787  -0.005504   0.244592   0.345541  -0.000122  -0.000036
     5  C   -0.017968  -0.004530   0.003511  -0.000122   5.187660   0.355194
     6  H   -0.005303   0.011675   0.000010  -0.000036   0.355194   0.574658
     7  O    0.184893  -0.054190  -0.061002   0.003192   0.160164  -0.034519
     8  C    0.283252  -0.082021  -0.042765   0.008349  -0.028052  -0.002338
     9  H   -0.039088   0.004742   0.002237  -0.000054  -0.000004   0.000048
    10  O   -0.035921   0.006390   0.000830  -0.000162   0.001090  -0.000019
    11  H    0.006384  -0.000355  -0.000160   0.000013   0.000085  -0.000034
    12  C   -0.050173   0.003141   0.000439  -0.000413  -0.052832   0.003513
    13  H    0.005576  -0.000260  -0.000088   0.000008   0.007557  -0.000231
    14  O    0.010131  -0.000169  -0.000644   0.000026   0.010609  -0.000180
    15  H    0.003746   0.000717   0.002115   0.000042   0.000014   0.000677
    16  C   -0.021933  -0.001208   0.000074   0.000035   0.273935  -0.055430
    17  H   -0.000001   0.000061   0.000004  -0.000001  -0.064369   0.003902
    18  O    0.000089   0.000133   0.000000   0.000000  -0.045220   0.004364
    19  H   -0.000840   0.000857   0.000003   0.000000  -0.002440   0.002725
    20  C    0.003346  -0.000075  -0.000158  -0.000018   0.316758  -0.022837
    21  H   -0.000186  -0.000045  -0.000006   0.000011  -0.032907  -0.003629
    22  H   -0.000068  -0.000005   0.000001   0.000000  -0.055970   0.002898
    23  O   -0.000113  -0.000013   0.000003  -0.000001  -0.053671   0.003014
    24  H   -0.000159   0.000001   0.000002  -0.000001  -0.004573  -0.000021
              7          8          9         10         11         12
     1  C    0.184893   0.283252  -0.039088  -0.035921   0.006384  -0.050173
     2  H   -0.054190  -0.082021   0.004742   0.006390  -0.000355   0.003141
     3  O   -0.061002  -0.042765   0.002237   0.000830  -0.000160   0.000439
     4  H    0.003192   0.008349  -0.000054  -0.000162   0.000013  -0.000413
     5  C    0.160164  -0.028052  -0.000004   0.001090   0.000085  -0.052832
     6  H   -0.034519  -0.002338   0.000048  -0.000019  -0.000034   0.003513
     7  O    8.470637  -0.043919   0.003081   0.001045  -0.000156   0.004174
     8  C   -0.043919   5.202729   0.374409   0.157202  -0.024201   0.308735
     9  H    0.003081   0.374409   0.528550  -0.026242  -0.006491  -0.043602
    10  O    0.001045   0.157202  -0.026242   8.329757   0.245539  -0.038770
    11  H   -0.000156  -0.024201  -0.006491   0.245539   0.343456   0.000026
    12  C    0.004174   0.308735  -0.043602  -0.038770   0.000026   5.015294
    13  H    0.000039  -0.050817  -0.005831   0.001382   0.003836   0.389778
    14  O   -0.028656  -0.042450   0.003413   0.001601   0.000018   0.220825
    15  H    0.027166  -0.011250   0.000347   0.000057   0.000015  -0.034223
    16  C   -0.043180  -0.029075   0.005953   0.001651  -0.000969   0.281064
    17  H    0.003157   0.005772  -0.000134  -0.000157  -0.000018  -0.044342
    18  O    0.001258   0.003253  -0.000220  -0.019784   0.001972  -0.034043
    19  H    0.000216  -0.002729   0.000564   0.042254  -0.002471  -0.009684
    20  C   -0.045227   0.000655   0.000006   0.000006  -0.000002  -0.000139
    21  H   -0.000737   0.000014  -0.000001   0.000000   0.000000  -0.000353
    22  H    0.003351   0.000015   0.000000   0.000000   0.000000   0.000355
    23  O   -0.001312   0.000025   0.000002   0.000000   0.000000  -0.002006
    24  H    0.000089   0.000385  -0.000012  -0.000004   0.000000  -0.004049
             13         14         15         16         17         18
     1  C    0.005576   0.010131   0.003746  -0.021933  -0.000001   0.000089
     2  H   -0.000260  -0.000169   0.000717  -0.001208   0.000061   0.000133
     3  O   -0.000088  -0.000644   0.002115   0.000074   0.000004   0.000000
     4  H    0.000008   0.000026   0.000042   0.000035  -0.000001   0.000000
     5  C    0.007557   0.010609   0.000014   0.273935  -0.064369  -0.045220
     6  H   -0.000231  -0.000180   0.000677  -0.055430   0.003902   0.004364
     7  O    0.000039  -0.028656   0.027166  -0.043180   0.003157   0.001258
     8  C   -0.050817  -0.042450  -0.011250  -0.029075   0.005772   0.003253
     9  H   -0.005831   0.003413   0.000347   0.005953  -0.000134  -0.000220
    10  O    0.001382   0.001601   0.000057   0.001651  -0.000157  -0.019784
    11  H    0.003836   0.000018   0.000015  -0.000969  -0.000018   0.001972
    12  C    0.389778   0.220825  -0.034223   0.281064  -0.044342  -0.034043
    13  H    0.576218  -0.032399   0.005119  -0.055745  -0.005809   0.004555
    14  O   -0.032399   8.330596   0.235384  -0.044796   0.000360   0.001629
    15  H    0.005119   0.235384   0.312630  -0.004334  -0.000359  -0.000080
    16  C   -0.055745  -0.044796  -0.004334   5.043478   0.392881   0.237567
    17  H   -0.005809   0.000360  -0.000359   0.392881   0.567485  -0.037155
    18  O    0.004555   0.001629  -0.000080   0.237567  -0.037155   8.316443
    19  H   -0.000414   0.000000   0.000034  -0.031820   0.005854   0.237757
    20  C   -0.000210  -0.002113  -0.002718  -0.023005   0.000682   0.002021
    21  H    0.000005   0.000015  -0.000092   0.005047   0.000293  -0.000082
    22  H   -0.000009  -0.000047   0.000322  -0.004721   0.000095   0.000433
    23  O   -0.000023  -0.005084   0.013992  -0.002682   0.000781   0.000065
    24  H    0.000047   0.019053  -0.003078   0.006732   0.008475   0.000048
             19         20         21         22         23         24
     1  C   -0.000840   0.003346  -0.000186  -0.000068  -0.000113  -0.000159
     2  H    0.000857  -0.000075  -0.000045  -0.000005  -0.000013   0.000001
     3  O    0.000003  -0.000158  -0.000006   0.000001   0.000003   0.000002
     4  H    0.000000  -0.000018   0.000011   0.000000  -0.000001  -0.000001
     5  C   -0.002440   0.316758  -0.032907  -0.055970  -0.053671  -0.004573
     6  H    0.002725  -0.022837  -0.003629   0.002898   0.003014  -0.000021
     7  O    0.000216  -0.045227  -0.000737   0.003351  -0.001312   0.000089
     8  C   -0.002729   0.000655   0.000014   0.000015   0.000025   0.000385
     9  H    0.000564   0.000006  -0.000001   0.000000   0.000002  -0.000012
    10  O    0.042254   0.000006   0.000000   0.000000   0.000000  -0.000004
    11  H   -0.002471  -0.000002   0.000000   0.000000   0.000000   0.000000
    12  C   -0.009684  -0.000139  -0.000353   0.000355  -0.002006  -0.004049
    13  H   -0.000414  -0.000210   0.000005  -0.000009  -0.000023   0.000047
    14  O    0.000000  -0.002113   0.000015  -0.000047  -0.005084   0.019053
    15  H    0.000034  -0.002718  -0.000092   0.000322   0.013992  -0.003078
    16  C   -0.031820  -0.023005   0.005047  -0.004721  -0.002682   0.006732
    17  H    0.005854   0.000682   0.000293   0.000095   0.000781   0.008475
    18  O    0.237757   0.002021  -0.000082   0.000433   0.000065   0.000048
    19  H    0.323859   0.000044   0.000004  -0.000003   0.000000   0.000009
    20  C    0.000044   4.826703   0.385245   0.377417   0.265889  -0.033354
    21  H    0.000004   0.385245   0.543202  -0.036804  -0.040966   0.006247
    22  H   -0.000003   0.377417  -0.036804   0.599679  -0.036305  -0.004231
    23  O    0.000000   0.265889  -0.040966  -0.036305   8.280554   0.234088
    24  H    0.000009  -0.033354   0.006247  -0.004231   0.234088   0.352877
 Mulliken atomic charges:
              1
     1  C    0.366132
     2  H    0.151600
     3  O   -0.643836
     4  H    0.427289
     5  C    0.046083
     6  H    0.161898
     7  O   -0.549563
     8  C    0.014823
     9  H    0.198326
    10  O   -0.667744
    11  H    0.433512
    12  C    0.087288
    13  H    0.157717
    14  O   -0.677122
    15  H    0.453757
    16  C    0.070480
    17  H    0.162543
    18  O   -0.675003
    19  H    0.436222
    20  C   -0.048918
    21  H    0.175726
    22  H    0.153598
    23  O   -0.656236
    24  H    0.421428
 Sum of Mulliken atomic charges =   0.00000
 Mulliken charges with hydrogens summed into heavy atoms:
              1
     1  C    0.517732
     3  O   -0.216547
     5  C    0.207981
     7  O   -0.549563
     8  C    0.213149
    10  O   -0.234232
    12  C    0.245005
    14  O   -0.223365
    16  C    0.233023
    18  O   -0.238781
    20  C    0.280406
    23  O   -0.234808
 Sum of Mulliken charges with hydrogens summed into heavy atoms =   0.00000
 Electronic spatial extent (au):  <R**2>=         325442.2302
 Charge=              0.0000 electrons
 Dipole moment (field-independent basis, Debye):
    X=             -0.6463    Y=             -1.7656    Z=             -1.9722  Tot=              2.7248
 Quadrupole moment (field-independent basis, Debye-Ang):
   XX=            -41.8169   YY=            -29.3846   ZZ=             -6.0383
   XY=             44.5779   XZ=             61.0356   YZ=             47.3802
 Traceless Quadrupole moment (field-independent basis, Debye-Ang):
   XX=            -16.0703   YY=             -3.6380   ZZ=             19.7083
   XY=             44.5779   XZ=             61.0356   YZ=             47.3802
 Octapole moment (field-independent basis, Debye-Ang**2):
  XXX=           3877.3686  YYY=           1557.8093  ZZZ=           2100.6676  XYY=            659.2142
  XXY=           -340.7114  XXZ=           -527.3436  XZZ=           -255.1772  YZZ=           -316.5839
  YYZ=            397.3084  XYZ=          -1196.7775
 Hexadecapole moment (field-independent basis, Debye-Ang**3):
 XXXX=        -193414.0604 YYYY=         -38324.9653 ZZZZ=         -94416.2775 XXXY=         -25534.1742
 XXXZ=         -35973.6039 YYYX=         -35953.7439 YYYZ=         -26783.0755 ZZZX=         -38671.4760
 ZZZY=         -17158.3642 XXYY=         -23442.9188 XXZZ=          -6741.5083 YYZZ=         -13663.1823
 XXYZ=          16559.2564 YYXZ=          -8584.8693 ZZXY=          10216.0851
 N-N= 8.617787371615D+02 E-N=-3.334094700442D+03  KE= 6.815410621025D+02
 1\1\GINC-RR65\FOpt\RM062X\6-31G(d)\C6H12O6\HMAYES\16-Jun-2012\0\\# opt
 (modredundant) m062x/6-31G(d) nosymm scf=xqc geom=allcheck guess=read\
 \Starting Geometry for Conformational Analysis\\0,1\C,-23.7304706781,-
 12.2153738991,-17.3841260681\H,-23.2962221603,-12.9714742551,-18.06207
 53464\O,-24.7256663889,-12.7383708629,-16.5763423198\H,-24.3187459315,
 -13.4061867861,-16.0036688657\C,-21.6294503497,-11.1497501588,-17.3241
 851763\H,-21.2298872348,-11.9151435926,-18.0062476129\O,-22.7071671849
 ,-11.7162606145,-16.5425787081\C,-24.3244403849,-11.0659707278,-18.209
 4612046\H,-25.3815490719,-10.9728155871,-17.9338072658\O,-24.186467420
 1,-11.4005375008,-19.5852654346\H,-24.7226911049,-10.7818509188,-20.10
 26870574\C,-23.5855001972,-9.7631126577,-17.8503491301\H,-23.995996509
 4,-8.9642724985,-18.4836233509\O,-23.7897129872,-9.3461283049,-16.5243
 107689\H,-23.5149939379,-10.0810103954,-15.9466729463\C,-22.1052088294
 ,-9.9154917902,-18.1912020409\H,-21.5798798553,-9.0112000263,-17.86179
 39203\O,-21.8156658917,-10.0508702126,-19.5544645717\H,-22.4055943621,
 -10.7412656462,-19.9018950269\C,-20.5753316112,-10.7397505859,-16.3052
 500873\H,-20.2236185128,-11.6186973925,-15.7590882429\H,-19.7220645107
 ,-10.2995433952,-16.8429602074\O,-21.0999632498,-9.8658516838,-15.3306
 571295\H,-21.5363156352,-9.1178045071,-15.768588517\\Version=EM64L-G09
 RevB.01\HF=-686.8750451\RMSD=6.696e-09\RMSF=4.818e-03\Dipole=-0.254264
 4,-0.694652,-0.7759108\Quadrupole=-11.9478813,-2.7047589,14.6526402,33
 .1425471,45.378511,35.2260114\PG=C01 [X(C6H12O6)]\\@


 READER, WHETHER YOU BE DILETTANTE OR PROFESSOR ... SHOW YOURSELF TO BE
 MORE HUMAN THAN CRITICAL, AND THEN YOUR PLEASURE WILL INCREASE.
                                           -- DOMENICO SCARLATTI (1738)
 Job cpu time:  0 days  1 hours 15 minutes 15.2 seconds.
 File lengths (MBytes):  RWF=     23 Int=      0 D2E=      0 Chk=      5 Scr=      1
 Normal termination of Gaussian 09 at Sat Jun 16 12:48:36 2012.
