 Entering Gaussian System, Link 0=g09
 Initial command:
 /projects/nrel/apps/gaussian/g09/B.01/g09/l1.exe /scratch/hmayes/0S200/Gau-18981.inp -scrdir=/scratch/hmayes/0S200/
 Default is to use a total of   8 processors:
                                8 via shared-memory
                                1 via Linda
 Entering Link 1 = /projects/nrel/apps/gaussian/g09/B.01/g09/l1.exe PID=     18982.
  
 Copyright (c) 1988,1990,1992,1993,1995,1998,2003,2009,2010,
            Gaussian, Inc.  All Rights Reserved.
  
 This is part of the Gaussian(R) 09 program.  It is based on
 the Gaussian(R) 03 system (copyright 2003, Gaussian, Inc.),
 the Gaussian(R) 98 system (copyright 1998, Gaussian, Inc.),
 the Gaussian(R) 94 system (copyright 1995, Gaussian, Inc.),
 the Gaussian 92(TM) system (copyright 1992, Gaussian, Inc.),
 the Gaussian 90(TM) system (copyright 1990, Gaussian, Inc.),
 the Gaussian 88(TM) system (copyright 1988, Gaussian, Inc.),
 the Gaussian 86(TM) system (copyright 1986, Carnegie Mellon
 University), and the Gaussian 82(TM) system (copyright 1983,
 Carnegie Mellon University). Gaussian is a federally registered
 trademark of Gaussian, Inc.
  
 This software contains proprietary and confidential information,
 including trade secrets, belonging to Gaussian, Inc.
  
 This software is provided under written license and may be
 used, copied, transmitted, or stored only in accord with that
 written license.
  
 The following legend is applicable only to US Government
 contracts under FAR:
  
                    RESTRICTED RIGHTS LEGEND
  
 Use, reproduction and disclosure by the US Government is
 subject to restrictions as set forth in subparagraphs (a)
 and (c) of the Commercial Computer Software - Restricted
 Rights clause in FAR 52.227-19.
  
 Gaussian, Inc.
 340 Quinnipiac St., Bldg. 40, Wallingford CT 06492
  
  
 ---------------------------------------------------------------
 Warning -- This program may not be used in any manner that
 competes with the business of Gaussian, Inc. or will provide
 assistance to any competitor of Gaussian, Inc.  The licensee
 of this program is prohibited from giving any competitor of
 Gaussian, Inc. access to this program.  By using this program,
 the user acknowledges that Gaussian, Inc. is engaged in the
 business of creating and licensing software in the field of
 computational chemistry and represents and warrants to the
 licensee that it is not a competitor of Gaussian, Inc. and that
 it will not use this program in any manner prohibited above.
 ---------------------------------------------------------------
  

 Cite this work as:
 Gaussian 09, Revision B.01,
 M. J. Frisch, G. W. Trucks, H. B. Schlegel, G. E. Scuseria, 
 M. A. Robb, J. R. Cheeseman, G. Scalmani, V. Barone, B. Mennucci, 
 G. A. Petersson, H. Nakatsuji, M. Caricato, X. Li, H. P. Hratchian, 
 A. F. Izmaylov, J. Bloino, G. Zheng, J. L. Sonnenberg, M. Hada, 
 M. Ehara, K. Toyota, R. Fukuda, J. Hasegawa, M. Ishida, T. Nakajima, 
 Y. Honda, O. Kitao, H. Nakai, T. Vreven, J. A. Montgomery, Jr., 
 J. E. Peralta, F. Ogliaro, M. Bearpark, J. J. Heyd, E. Brothers, 
 K. N. Kudin, V. N. Staroverov, T. Keith, R. Kobayashi, J. Normand, 
 K. Raghavachari, A. Rendell, J. C. Burant, S. S. Iyengar, J. Tomasi, 
 M. Cossi, N. Rega, J. M. Millam, M. Klene, J. E. Knox, J. B. Cross, 
 V. Bakken, C. Adamo, J. Jaramillo, R. Gomperts, R. E. Stratmann, 
 O. Yazyev, A. J. Austin, R. Cammi, C. Pomelli, J. W. Ochterski, 
 R. L. Martin, K. Morokuma, V. G. Zakrzewski, G. A. Voth, 
 P. Salvador, J. J. Dannenberg, S. Dapprich, A. D. Daniels, 
 O. Farkas, J. B. Foresman, J. V. Ortiz, J. Cioslowski, 
 and D. J. Fox, Gaussian, Inc., Wallingford CT, 2010.
 
 ******************************************
 Gaussian 09:  EM64L-G09RevB.01 12-Aug-2010
                 6-Jun-2012 
 ******************************************
 %chk=/home/hmayes/gaussian/pucker/chks/0S200.chk
 %mem=10GB
 %nproc=8
 Will use up to    8 processors via shared memory.
 Default route:  MaxDisk=16GB
 -------------------------
 # opt freq m062x/6-31G(d)
 -------------------------
 1/14=-1,18=20,19=15,26=3,38=1/1,3;
 2/9=110,12=2,17=6,18=5,40=1/2;
 3/5=1,6=6,7=1,11=2,16=1,25=1,30=1,71=1,74=-55/1,2,3;
 4//1;
 5/5=2,38=5/2;
 6/7=2,8=2,9=2,10=2,28=1/1;
 7//1,2,3,16;
 1/14=-1,18=20,19=15/3(2);
 2/9=110/2;
 99//99;
 2/9=110/2;
 3/5=1,6=6,7=1,11=2,16=1,25=1,30=1,71=1,74=-55/1,2,3;
 4/5=5,16=3/1;
 5/5=2,38=5/2;
 7//1,2,3,16;
 1/14=-1,18=20,19=15/3(-5);
 2/9=110/2;
 6/7=2,8=2,9=2,10=2,19=2,28=1/1;
 99/9=1/99;
 ---------------------------------------
 from http://6ring.bio.nrc.ca/suppl.html
 ---------------------------------------
 Symbolic Z-matrix:
 Charge =  0 Multiplicity = 1
 C                     1.375     0.014    -0.013 
 C                     0.636     1.15      0.341 
 C                    -0.593     1.103    -0.328 
 C                    -1.375    -0.014    -0.013 
 C                    -0.636    -1.15      0.341 
 O                     0.593    -1.103    -0.328 
 H                    -1.9887   -0.2615   -0.8867 
 H                    -2.0263    0.2485    0.8285 
 H                    -0.4679   -1.1597    1.424 
 H                    -1.1828   -2.0536    0.048 
 H                     1.9887    0.2615   -0.8867 
 H                     2.0263   -0.2485    0.8285 
 H                     1.1828    2.0536    0.048 
 H                     0.4679    1.1597    1.424 
 H                    -0.3972    1.0925   -1.4063 
 H                    -1.1604    2.0041   -0.0684 
 

 GradGradGradGradGradGradGradGradGradGradGradGradGradGradGradGradGradGrad
 Berny optimization.
 Initialization pass.
                           ----------------------------
                           !    Initial Parameters    !
                           ! (Angstroms and Degrees)  !
 --------------------------                            --------------------------
 ! Name  Definition              Value          Derivative Info.                !
 --------------------------------------------------------------------------------
 ! R1    R(1,2)                  1.4007         estimate D2E/DX2                !
 ! R2    R(1,6)                  1.3994         estimate D2E/DX2                !
 ! R3    R(1,11)                 1.096          estimate D2E/DX2                !
 ! R4    R(1,12)                 1.096          estimate D2E/DX2                !
 ! R5    R(2,3)                  1.4001         estimate D2E/DX2                !
 ! R6    R(2,13)                 1.0961         estimate D2E/DX2                !
 ! R7    R(2,14)                 1.096          estimate D2E/DX2                !
 ! R8    R(3,4)                  1.3994         estimate D2E/DX2                !
 ! R9    R(3,15)                 1.096          estimate D2E/DX2                !
 ! R10   R(3,16)                 1.096          estimate D2E/DX2                !
 ! R11   R(4,5)                  1.4007         estimate D2E/DX2                !
 ! R12   R(4,7)                  1.096          estimate D2E/DX2                !
 ! R13   R(4,8)                  1.096          estimate D2E/DX2                !
 ! R14   R(5,6)                  1.4001         estimate D2E/DX2                !
 ! R15   R(5,9)                  1.096          estimate D2E/DX2                !
 ! R16   R(5,10)                 1.0961         estimate D2E/DX2                !
 ! A1    A(2,1,6)              114.1679         estimate D2E/DX2                !
 ! A2    A(2,1,11)             108.2852         estimate D2E/DX2                !
 ! A3    A(2,1,12)             108.2839         estimate D2E/DX2                !
 ! A4    A(6,1,11)             108.2824         estimate D2E/DX2                !
 ! A5    A(6,1,12)             108.2834         estimate D2E/DX2                !
 ! A6    A(11,1,12)            109.475          estimate D2E/DX2                !
 ! A7    A(1,2,3)              108.3693         estimate D2E/DX2                !
 ! A8    A(1,2,13)             109.7461         estimate D2E/DX2                !
 ! A9    A(1,2,14)             109.7447         estimate D2E/DX2                !
 ! A10   A(3,2,13)             109.7467         estimate D2E/DX2                !
 ! A11   A(3,2,14)             109.7443         estimate D2E/DX2                !
 ! A12   A(13,2,14)            109.4734         estimate D2E/DX2                !
 ! A13   A(2,3,4)              114.1894         estimate D2E/DX2                !
 ! A14   A(2,3,15)             108.2776         estimate D2E/DX2                !
 ! A15   A(2,3,16)             108.2793         estimate D2E/DX2                !
 ! A16   A(4,3,15)             108.2788         estimate D2E/DX2                !
 ! A17   A(4,3,16)             108.2776         estimate D2E/DX2                !
 ! A18   A(15,3,16)            109.4747         estimate D2E/DX2                !
 ! A19   A(3,4,5)              114.1679         estimate D2E/DX2                !
 ! A20   A(3,4,7)              108.2824         estimate D2E/DX2                !
 ! A21   A(3,4,8)              108.2834         estimate D2E/DX2                !
 ! A22   A(5,4,7)              108.2852         estimate D2E/DX2                !
 ! A23   A(5,4,8)              108.2839         estimate D2E/DX2                !
 ! A24   A(7,4,8)              109.475          estimate D2E/DX2                !
 ! A25   A(4,5,6)              108.3693         estimate D2E/DX2                !
 ! A26   A(4,5,9)              109.7447         estimate D2E/DX2                !
 ! A27   A(4,5,10)             109.7461         estimate D2E/DX2                !
 ! A28   A(6,5,9)              109.7443         estimate D2E/DX2                !
 ! A29   A(6,5,10)             109.7467         estimate D2E/DX2                !
 ! A30   A(9,5,10)             109.4734         estimate D2E/DX2                !
 ! A31   A(1,6,5)              114.1894         estimate D2E/DX2                !
 ! D1    D(6,1,2,3)            -29.4623         estimate D2E/DX2                !
 ! D2    D(6,1,2,13)          -149.2932         estimate D2E/DX2                !
 ! D3    D(6,1,2,14)            90.3647         estimate D2E/DX2                !
 ! D4    D(11,1,2,3)            91.2283         estimate D2E/DX2                !
 ! D5    D(11,1,2,13)          -28.6025         estimate D2E/DX2                !
 ! D6    D(11,1,2,14)         -148.9447         estimate D2E/DX2                !
 ! D7    D(12,1,2,3)          -150.1534         estimate D2E/DX2                !
 ! D8    D(12,1,2,13)           90.0158         estimate D2E/DX2                !
 ! D9    D(12,1,2,14)          -30.3264         estimate D2E/DX2                !
 ! D10   D(2,1,6,5)            -29.4888         estimate D2E/DX2                !
 ! D11   D(11,1,6,5)          -150.181          estimate D2E/DX2                !
 ! D12   D(12,1,6,5)            91.2025         estimate D2E/DX2                !
 ! D13   D(1,2,3,4)             60.6163         estimate D2E/DX2                !
 ! D14   D(1,2,3,15)           -60.0782         estimate D2E/DX2                !
 ! D15   D(1,2,3,16)          -178.6894         estimate D2E/DX2                !
 ! D16   D(13,2,3,4)          -179.5532         estimate D2E/DX2                !
 ! D17   D(13,2,3,15)           59.7522         estimate D2E/DX2                !
 ! D18   D(13,2,3,16)          -58.8589         estimate D2E/DX2                !
 ! D19   D(14,2,3,4)           -59.211          estimate D2E/DX2                !
 ! D20   D(14,2,3,15)         -179.9055         estimate D2E/DX2                !
 ! D21   D(14,2,3,16)           61.4833         estimate D2E/DX2                !
 ! D22   D(2,3,4,5)            -29.4888         estimate D2E/DX2                !
 ! D23   D(2,3,4,7)           -150.181          estimate D2E/DX2                !
 ! D24   D(2,3,4,8)             91.2025         estimate D2E/DX2                !
 ! D25   D(15,3,4,5)            91.2051         estimate D2E/DX2                !
 ! D26   D(15,3,4,7)           -29.4871         estimate D2E/DX2                !
 ! D27   D(15,3,4,8)          -148.1036         estimate D2E/DX2                !
 ! D28   D(16,3,4,5)          -150.1841         estimate D2E/DX2                !
 ! D29   D(16,3,4,7)            89.1237         estimate D2E/DX2                !
 ! D30   D(16,3,4,8)           -29.4927         estimate D2E/DX2                !
 ! D31   D(3,4,5,6)            -29.4623         estimate D2E/DX2                !
 ! D32   D(3,4,5,9)             90.3647         estimate D2E/DX2                !
 ! D33   D(3,4,5,10)          -149.2932         estimate D2E/DX2                !
 ! D34   D(7,4,5,6)             91.2283         estimate D2E/DX2                !
 ! D35   D(7,4,5,9)           -148.9447         estimate D2E/DX2                !
 ! D36   D(7,4,5,10)           -28.6025         estimate D2E/DX2                !
 ! D37   D(8,4,5,6)           -150.1534         estimate D2E/DX2                !
 ! D38   D(8,4,5,9)            -30.3264         estimate D2E/DX2                !
 ! D39   D(8,4,5,10)            90.0158         estimate D2E/DX2                !
 ! D40   D(4,5,6,1)             60.6163         estimate D2E/DX2                !
 ! D41   D(9,5,6,1)            -59.211          estimate D2E/DX2                !
 ! D42   D(10,5,6,1)          -179.5532         estimate D2E/DX2                !
 --------------------------------------------------------------------------------
 Trust Radius=3.00D-01 FncErr=1.00D-07 GrdErr=1.00D-06
 Number of steps in this run=     99 maximum allowed number of steps=    100.
 GradGradGradGradGradGradGradGradGradGradGradGradGradGradGradGradGradGrad

                          Input orientation:                          
 ---------------------------------------------------------------------
 Center     Atomic      Atomic             Coordinates (Angstroms)
 Number     Number       Type             X           Y           Z
 ---------------------------------------------------------------------
      1          6           0        1.375000    0.014000   -0.013000
      2          6           0        0.636000    1.150000    0.341000
      3          6           0       -0.593000    1.103000   -0.328000
      4          6           0       -1.375000   -0.014000   -0.013000
      5          6           0       -0.636000   -1.150000    0.341000
      6          8           0        0.593000   -1.103000   -0.328000
      7          1           0       -1.988700   -0.261500   -0.886700
      8          1           0       -2.026300    0.248500    0.828500
      9          1           0       -0.467900   -1.159700    1.424000
     10          1           0       -1.182800   -2.053600    0.048000
     11          1           0        1.988700    0.261500   -0.886700
     12          1           0        2.026300   -0.248500    0.828500
     13          1           0        1.182800    2.053600    0.048000
     14          1           0        0.467900    1.159700    1.424000
     15          1           0       -0.397200    1.092500   -1.406300
     16          1           0       -1.160400    2.004100   -0.068400
 ---------------------------------------------------------------------
                    Distance matrix (angstroms):
                    1          2          3          4          5
     1  C    0.000000
     2  C    1.400690   0.000000
     3  C    2.271160   1.400075   0.000000
     4  C    2.750143   2.350390   1.399442   0.000000
     5  C    2.350390   2.628304   2.350621   1.400690   0.000000
     6  O    1.399442   2.350621   2.504602   2.271160   1.400075
     7  H    3.486220   3.223140   2.030267   1.096009   2.031373
     8  H    3.511688   2.852753   2.030274   1.096002   2.031352
     9  H    2.615114   2.779604   2.864431   2.049495   1.096011
    10  H    3.289534   3.695529   3.233166   2.049544   1.096053
    11  H    1.096009   2.031373   2.772263   3.486220   3.223140
    12  H    1.096002   2.031352   3.166193   3.511688   2.852753
    13  H    2.049544   1.096053   2.049020   3.289534   3.695529
    14  H    2.049495   1.096011   2.048958   2.615114   2.779604
    15  H    2.499028   2.030730   1.095983   2.030202   2.852874
    16  H    3.223635   2.030800   1.096046   2.030234   3.223500
                    6          7          8          9         10
     6  O    0.000000
     7  H    2.772263   0.000000
     8  H    3.166193   1.789811   0.000000
     9  H    2.048958   2.908424   2.183176   0.000000
    10  H    2.049020   2.175951   2.573002   1.789837   0.000000
    11  H    2.030267   4.011638   4.366040   3.659785   4.036306
    12  H    2.030274   4.366040   4.082962   2.721386   3.763760
    13  H    3.233166   4.036306   3.763760   3.865680   4.739742
    14  H    2.864431   3.659785   2.721386   2.501067   3.865680
    15  H    2.638834   2.153177   2.891476   3.617734   3.553885
    16  H    3.577132   2.547281   2.153217   3.566012   4.059431
                   11         12         13         14         15
    11  H    0.000000
    12  H    1.789811   0.000000
    13  H    2.175951   2.573002   0.000000
    14  H    2.908424   2.183176   1.789837   0.000000
    15  H    2.579353   3.558927   2.352680   2.960323   0.000000
    16  H    3.690948   4.004209   2.346611   2.364663   1.789823
                   16
    16  H    0.000000
 Stoichiometry    C5H10O
 Framework group  C1[X(C5H10O)]
 Deg. of freedom    42
 Full point group                 C1      NOp   1
 Largest Abelian subgroup         C1      NOp   1
 Largest concise Abelian subgroup C1      NOp   1
                         Standard orientation:                         
 ---------------------------------------------------------------------
 Center     Atomic      Atomic             Coordinates (Angstroms)
 Number     Number       Type             X           Y           Z
 ---------------------------------------------------------------------
      1          6           0        1.206728   -0.674577   -0.038795
      2          6           0        1.110268    0.667365    0.350846
      3          6           0        0.016864    1.240957   -0.309210
      4          6           0       -1.210898    0.636112   -0.017321
      5          6           0       -1.118460   -0.724846    0.300772
      6          8           0       -0.017455   -1.262501   -0.376668
      7          1           0       -1.862599    0.741266   -0.892229
      8          1           0       -1.657586    1.159101    0.836010
      9          1           0       -0.982371   -0.844023    1.381752
     10          1           0       -2.033542   -1.241081   -0.011410
     11          1           0        1.868357   -0.732799   -0.910628
     12          1           0        1.643854   -1.242768    0.790241
     13          1           0        2.028680    1.199339    0.077248
     14          1           0        0.961872    0.728369    1.435050
     15          1           0        0.189060    1.165680   -1.388960
     16          1           0       -0.043103    2.296861   -0.021483
 ---------------------------------------------------------------------
 Rotational constants (GHZ):      5.2825467      4.9299235      3.0000862
 Standard basis: 6-31G(d) (6D, 7F)
 There are   110 symmetry adapted basis functions of A   symmetry.
 Integral buffers will be    131072 words long.
 Raffenetti 2 integral format.
 Two-electron integral symmetry is turned on.
   110 basis functions,   208 primitive gaussians,   110 cartesian basis functions
    24 alpha electrons       24 beta electrons
       nuclear repulsion energy       273.6291398499 Hartrees.
 NAtoms=   16 NActive=   16 NUniq=   16 SFac= 1.00D+00 NAtFMM=   50 NAOKFM=F Big=F
 One-electron integrals computed using PRISM.
 NBasis=   110 RedAO= T  NBF=   110
 NBsUse=   110 1.00D-06 NBFU=   110
 Harris functional with IExCor= 1009 diagonalized for initial guess.
 ExpMin= 1.61D-01 ExpMax= 5.48D+03 ExpMxC= 8.25D+02 IAcc=1 IRadAn=         1 AccDes= 0.00D+00
 HarFok:  IExCor= 1009 AccDes= 0.00D+00 IRadAn=         1 IDoV= 1
 ScaDFX=  1.000000  1.000000  1.000000  1.000000
 FoFCou: FMM=F IPFlag=           0 FMFlag=      100000 FMFlg1=           0
         NFxFlg=           0 DoJE=T BraDBF=F KetDBF=T FulRan=T
         Omega=  0.000000  0.000000  1.000000  0.000000  0.000000 ICntrl=     500 IOpCl=  0
         NMat0=    1 NMatS0=    1 NMatT0=    0 NMatD0=    1 NMtDS0=    0 NMtDT0=    0
         I1Cent=           4 NGrid=           0.
 Petite list used in FoFCou.
 Initial guess orbital symmetries:
       Occupied  (A) (A) (A) (A) (A) (A) (A) (A) (A) (A) (A) (A)
                 (A) (A) (A) (A) (A) (A) (A) (A) (A) (A) (A) (A)
       Virtual   (A) (A) (A) (A) (A) (A) (A) (A) (A) (A) (A) (A)
                 (A) (A) (A) (A) (A) (A) (A) (A) (A) (A) (A) (A)
                 (A) (A) (A) (A) (A) (A) (A) (A) (A) (A) (A) (A)
                 (A) (A) (A) (A) (A) (A) (A) (A) (A) (A) (A) (A)
                 (A) (A) (A) (A) (A) (A) (A) (A) (A) (A) (A) (A)
                 (A) (A) (A) (A) (A) (A) (A) (A) (A) (A) (A) (A)
                 (A) (A) (A) (A) (A) (A) (A) (A) (A) (A) (A) (A)
                 (A) (A)
 The electronic state of the initial guess is 1-A.
 Requested convergence on RMS density matrix=1.00D-08 within 128 cycles.
 Requested convergence on MAX density matrix=1.00D-06.
 Requested convergence on             energy=1.00D-06.
 No special actions if energy rises.
 Keep R1 ints in memory in canonical form, NReq=19758393.
 Integral accuracy reduced to 1.0D-05 until final iterations.
 Initial convergence to 1.0D-05 achieved.  Increase integral accuracy.
 SCF Done:  E(RM062X) =  -271.571407913     A.U. after   14 cycles
             Convg  =    0.6659D-08             -V/T =  2.0037

 **********************************************************************

            Population analysis using the SCF density.

 **********************************************************************

 Orbital symmetries:
       Occupied  (A) (A) (A) (A) (A) (A) (A) (A) (A) (A) (A) (A)
                 (A) (A) (A) (A) (A) (A) (A) (A) (A) (A) (A) (A)
       Virtual   (A) (A) (A) (A) (A) (A) (A) (A) (A) (A) (A) (A)
                 (A) (A) (A) (A) (A) (A) (A) (A) (A) (A) (A) (A)
                 (A) (A) (A) (A) (A) (A) (A) (A) (A) (A) (A) (A)
                 (A) (A) (A) (A) (A) (A) (A) (A) (A) (A) (A) (A)
                 (A) (A) (A) (A) (A) (A) (A) (A) (A) (A) (A) (A)
                 (A) (A) (A) (A) (A) (A) (A) (A) (A) (A) (A) (A)
                 (A) (A) (A) (A) (A) (A) (A) (A) (A) (A) (A) (A)
                 (A) (A)
 The electronic state is 1-A.
 Alpha  occ. eigenvalues --  -19.62253 -10.57243 -10.57097 -10.52159 -10.51958
 Alpha  occ. eigenvalues --  -10.51630  -1.16244  -0.94408  -0.89028  -0.75303
 Alpha  occ. eigenvalues --   -0.72367  -0.61015  -0.59266  -0.58730  -0.55595
 Alpha  occ. eigenvalues --   -0.49980  -0.48470  -0.46162  -0.43613  -0.42191
 Alpha  occ. eigenvalues --   -0.39844  -0.37803  -0.33958  -0.30365
 Alpha virt. eigenvalues --    0.11116   0.13844   0.16613   0.18004   0.19516
 Alpha virt. eigenvalues --    0.20045   0.21348   0.22938   0.25471   0.26919
 Alpha virt. eigenvalues --    0.27585   0.30175   0.31457   0.34743   0.37995
 Alpha virt. eigenvalues --    0.42414   0.54273   0.56246   0.59591   0.61147
 Alpha virt. eigenvalues --    0.62021   0.63626   0.64331   0.75347   0.78119
 Alpha virt. eigenvalues --    0.80505   0.81590   0.83346   0.86621   0.89207
 Alpha virt. eigenvalues --    0.90696   0.91243   0.92844   0.93536   0.94630
 Alpha virt. eigenvalues --    0.97487   0.99277   1.00487   1.02119   1.03554
 Alpha virt. eigenvalues --    1.05764   1.10141   1.14016   1.30269   1.37008
 Alpha virt. eigenvalues --    1.38184   1.43583   1.44982   1.49206   1.54348
 Alpha virt. eigenvalues --    1.70348   1.77391   1.82286   1.88414   1.90432
 Alpha virt. eigenvalues --    1.93509   2.00667   2.04383   2.07624   2.09924
 Alpha virt. eigenvalues --    2.12683   2.14613   2.15203   2.19391   2.30297
 Alpha virt. eigenvalues --    2.33413   2.37997   2.44664   2.46812   2.49630
 Alpha virt. eigenvalues --    2.53023   2.54145   2.57389   2.60377   2.67271
 Alpha virt. eigenvalues --    2.79883   2.86359   2.92248   3.01414   3.03475
 Alpha virt. eigenvalues --    4.10229   4.33204   4.33529   4.42118   4.54085
 Alpha virt. eigenvalues --    4.68623
          Condensed to atoms (all electrons):
              1          2          3          4          5          6
     1  C    4.818531   0.341925  -0.063234  -0.035922  -0.040445   0.268207
     2  C    0.341925   5.221854   0.348484  -0.048231  -0.008518  -0.063018
     3  C   -0.063234   0.348484   5.075647   0.378724  -0.073808  -0.004100
     4  C   -0.035922  -0.048231   0.378724   5.182842   0.346341  -0.064731
     5  C   -0.040445  -0.008518  -0.073808   0.346341   4.847306   0.252318
     6  O    0.268207  -0.063018  -0.004100  -0.064731   0.252318   8.287733
     7  H    0.000465   0.007214  -0.045978   0.391147  -0.041648   0.001953
     8  H    0.000438  -0.003915  -0.046218   0.377689  -0.042032   0.005216
     9  H   -0.001964  -0.002357  -0.001742  -0.074738   0.389273  -0.047554
    10  H    0.004833  -0.000509   0.007378  -0.049913   0.404971  -0.031896
    11  H    0.395456  -0.042466  -0.008749  -0.000317   0.005768  -0.042028
    12  H    0.400657  -0.075738   0.012843  -0.001058  -0.003692  -0.049480
    13  H   -0.035677   0.384405  -0.031406   0.007555   0.000097   0.003713
    14  H   -0.047413   0.392842  -0.057768  -0.004673   0.000142   0.000743
    15  H   -0.003195  -0.055253   0.395699  -0.047264  -0.002716  -0.000196
    16  H    0.008585  -0.045141   0.397756  -0.044946   0.007849   0.000545
              7          8          9         10         11         12
     1  C    0.000465   0.000438  -0.001964   0.004833   0.395456   0.400657
     2  C    0.007214  -0.003915  -0.002357  -0.000509  -0.042466  -0.075738
     3  C   -0.045978  -0.046218  -0.001742   0.007378  -0.008749   0.012843
     4  C    0.391147   0.377689  -0.074738  -0.049913  -0.000317  -0.001058
     5  C   -0.041648  -0.042032   0.389273   0.404971   0.005768  -0.003692
     6  O    0.001953   0.005216  -0.047554  -0.031896  -0.042028  -0.049480
     7  H    0.570351  -0.023112   0.007957  -0.015191   0.000027   0.000056
     8  H   -0.023112   0.591575  -0.006239   0.002906   0.000014   0.000224
     9  H    0.007957  -0.006239   0.642485  -0.036183  -0.000535   0.007648
    10  H   -0.015191   0.002906  -0.036183   0.545950  -0.000108  -0.000214
    11  H    0.000027   0.000014  -0.000535  -0.000108   0.577371  -0.039321
    12  H    0.000056   0.000224   0.007648  -0.000214  -0.039321   0.626647
    13  H   -0.000272  -0.000137  -0.000041   0.000020  -0.011844   0.003051
    14  H   -0.000069   0.004279  -0.001993   0.000032   0.007932  -0.015530
    15  H   -0.014379   0.007366  -0.000305  -0.000075   0.005347  -0.000018
    16  H    0.000807  -0.015421   0.000023  -0.000208  -0.000286  -0.000269
             13         14         15         16
     1  C   -0.035677  -0.047413  -0.003195   0.008585
     2  C    0.384405   0.392842  -0.055253  -0.045141
     3  C   -0.031406  -0.057768   0.395699   0.397756
     4  C    0.007555  -0.004673  -0.047264  -0.044946
     5  C    0.000097   0.000142  -0.002716   0.007849
     6  O    0.003713   0.000743  -0.000196   0.000545
     7  H   -0.000272  -0.000069  -0.014379   0.000807
     8  H   -0.000137   0.004279   0.007366  -0.015421
     9  H   -0.000041  -0.001993  -0.000305   0.000023
    10  H    0.000020   0.000032  -0.000075  -0.000208
    11  H   -0.011844   0.007932   0.005347  -0.000286
    12  H    0.003051  -0.015530  -0.000018  -0.000269
    13  H    0.551339  -0.026616  -0.006631  -0.006186
    14  H   -0.026616   0.598920   0.008453  -0.006693
    15  H   -0.006631   0.008453   0.584017  -0.025884
    16  H   -0.006186  -0.006693  -0.025884   0.573499
 Mulliken atomic charges:
              1
     1  C   -0.011246
     2  C   -0.351579
     3  C   -0.283529
     4  C   -0.312506
     5  C   -0.041206
     6  O   -0.517425
     7  H    0.160672
     8  H    0.147366
     9  H    0.126264
    10  H    0.168208
    11  H    0.153740
    12  H    0.134192
    13  H    0.168630
    14  H    0.147413
    15  H    0.155034
    16  H    0.155971
 Sum of Mulliken atomic charges =   0.00000
 Mulliken charges with hydrogens summed into heavy atoms:
              1
     1  C    0.276687
     2  C   -0.035536
     3  C    0.027477
     4  C   -0.004468
     5  C    0.253266
     6  O   -0.517425
 Sum of Mulliken charges with hydrogens summed into heavy atoms =   0.00000
 Electronic spatial extent (au):  <R**2>=            494.6512
 Charge=              0.0000 electrons
 Dipole moment (field-independent basis, Debye):
    X=              0.0524    Y=              1.3871    Z=              0.7181  Tot=              1.5628
 Quadrupole moment (field-independent basis, Debye-Ang):
   XX=            -35.3993   YY=            -41.1940   ZZ=            -37.8609
   XY=              0.5750   XZ=             -0.4119   YZ=             -0.9658
 Traceless Quadrupole moment (field-independent basis, Debye-Ang):
   XX=              2.7521   YY=             -3.0425   ZZ=              0.2905
   XY=              0.5750   XZ=             -0.4119   YZ=             -0.9658
 Octapole moment (field-independent basis, Debye-Ang**2):
  XXX=              0.1448  YYY=              0.4084  ZZZ=             -1.3531  XYY=             -0.3332
  XXY=             -4.0079  XXZ=             -2.7197  XZZ=             -0.0938  YZZ=             -0.9458
  YYZ=              1.9164  XYZ=             -0.5767
 Hexadecapole moment (field-independent basis, Debye-Ang**3):
 XXXX=           -296.7372 YYYY=           -268.1957 ZZZZ=            -90.3291 XXXY=              6.8642
 XXXZ=             -1.0980 YYYX=              1.7004 YYYZ=              2.0830 ZZZX=             -0.3033
 ZZZY=              1.1906 XXYY=            -91.9269 XXZZ=            -64.3716 YYZZ=            -60.3725
 XXYZ=              1.0360 YYXZ=             -0.3732 ZZXY=             -1.6743
 N-N= 2.736291398499D+02 E-N=-1.179476874894D+03  KE= 2.705660180490D+02
 Calling FoFJK, ICntrl=      2127 FMM=F ISym2X=0 I1Cent= 0 IOpClX= 0 NMat=1 NMatS=1 NMatT=0.
 ***** Axes restored to original set *****
 -------------------------------------------------------------------
 Center     Atomic                   Forces (Hartrees/Bohr)
 Number     Number              X              Y              Z
 -------------------------------------------------------------------
      1        6           0.063687098   -0.061543411   -0.007280587
      2        6           0.023703432    0.069502649    0.060160277
      3        6          -0.031361943    0.087882206   -0.062943150
      4        6          -0.113181499   -0.003112872    0.000206812
      5        6           0.041624069   -0.060135841    0.026984687
      6        8           0.007999986   -0.025783693   -0.021150161
      7        1          -0.008860994    0.003120085    0.003857097
      8        1          -0.009802371   -0.003642493   -0.002186200
      9        1           0.002949096   -0.007913142    0.005788952
     10        1           0.010271579   -0.004708906    0.003998257
     11        1           0.001900393   -0.010401244   -0.002527244
     12        1           0.011044467   -0.004593613   -0.002497338
     13        1           0.001366076    0.001685368    0.009088963
     14        1          -0.000003943    0.007369865    0.003775108
     15        1          -0.000095220    0.008016455   -0.003220348
     16        1          -0.001240226    0.004258586   -0.012055124
 -------------------------------------------------------------------
 Cartesian Forces:  Max     0.113181499 RMS     0.032525253

 GradGradGradGradGradGradGradGradGradGradGradGradGradGradGradGradGradGrad
 Berny optimization.
 Internal  Forces:  Max     0.113722721 RMS     0.024134290
 Search for a local minimum.
 Step number   1 out of a maximum of   99
 All quantities printed in internal units (Hartrees-Bohrs-Radians)
 Mixed Optimization -- RFO/linear search
 Second derivative matrix not updated -- first step.
 ITU=  0
     Eigenvalues ---    0.02020   0.02167   0.02498   0.04074   0.04158
     Eigenvalues ---    0.05195   0.05589   0.06032   0.06143   0.06377
     Eigenvalues ---    0.06728   0.07206   0.07354   0.08473   0.08480
     Eigenvalues ---    0.09298   0.09303   0.10114   0.11327   0.11627
     Eigenvalues ---    0.11880   0.12674   0.13483   0.19207   0.20432
     Eigenvalues ---    0.22675   0.34122   0.34122   0.34123   0.34127
     Eigenvalues ---    0.34127   0.34127   0.34127   0.34128   0.34128
     Eigenvalues ---    0.34130   0.39097   0.40335   0.42708   0.45528
     Eigenvalues ---    0.45614   0.45696
 RFO step:  Lambda=-1.00529424D-01 EMin= 2.02007322D-02
 Linear search not attempted -- first point.
 Maximum step size (   0.300) exceeded in Quadratic search.
    -- Step size scaled by   0.688
 Iteration  1 RMS(Cart)=  0.05789446 RMS(Int)=  0.00074453
 Iteration  2 RMS(Cart)=  0.00082637 RMS(Int)=  0.00042830
 Iteration  3 RMS(Cart)=  0.00000050 RMS(Int)=  0.00042830
 Variable       Old X    -DE/DX   Delta X   Delta X   Delta X     New X
                                 (Linear)    (Quad)   (Total)
    R1        2.64692   0.11300   0.00000   0.14138   0.14120   2.78812
    R2        2.64456   0.02392   0.00000   0.02289   0.02207   2.66663
    R3        2.07116   0.00072   0.00000   0.00112   0.00112   2.07228
    R4        2.07114   0.00575   0.00000   0.00896   0.00896   2.08011
    R5        2.64576   0.10021   0.00000   0.12902   0.12943   2.77519
    R6        2.07124  -0.00036   0.00000  -0.00056  -0.00056   2.07068
    R7        2.07116   0.00380   0.00000   0.00592   0.00592   2.07708
    R8        2.64456   0.10375   0.00000   0.13611   0.13705   2.78161
    R9        2.07111   0.00308   0.00000   0.00480   0.00480   2.07590
   R10        2.07123   0.00129   0.00000   0.00200   0.00200   2.07323
   R11        2.64692   0.11372   0.00000   0.14111   0.14138   2.78830
   R12        2.07116   0.00118   0.00000   0.00184   0.00184   2.07300
   R13        2.07114   0.00328   0.00000   0.00511   0.00511   2.07625
   R14        2.64576   0.02671   0.00000   0.02494   0.02428   2.67003
   R15        2.07116   0.00624   0.00000   0.00972   0.00972   2.08088
   R16        2.07124  -0.00231   0.00000  -0.00359  -0.00359   2.06765
    A1        1.99261   0.00329   0.00000  -0.00037  -0.00107   1.99153
    A2        1.88993   0.00671   0.00000   0.02363   0.02389   1.91382
    A3        1.88991   0.00806   0.00000   0.02780   0.02763   1.91755
    A4        1.88988  -0.00501   0.00000  -0.02278  -0.02296   1.86692
    A5        1.88990  -0.00738   0.00000  -0.00882  -0.00833   1.88157
    A6        1.91070  -0.00614   0.00000  -0.02081  -0.02141   1.88929
    A7        1.89140   0.00466   0.00000   0.01885   0.01920   1.91060
    A8        1.91543   0.00324   0.00000   0.00027  -0.00023   1.91520
    A9        1.91541  -0.00298   0.00000   0.00160   0.00177   1.91718
   A10        1.91544  -0.00383   0.00000  -0.00187  -0.00166   1.91379
   A11        1.91540   0.00262   0.00000  -0.00170  -0.00234   1.91306
   A12        1.91067  -0.00362   0.00000  -0.01678  -0.01673   1.89394
   A13        1.99298  -0.02019   0.00000  -0.03753  -0.03683   1.95615
   A14        1.88980   0.00499   0.00000   0.00378   0.00371   1.89351
   A15        1.88983   0.00760   0.00000   0.02109   0.02113   1.91096
   A16        1.88982   0.00440   0.00000   0.01467   0.01470   1.90452
   A17        1.88980   0.01145   0.00000   0.02180   0.02151   1.91131
   A18        1.91069  -0.00838   0.00000  -0.02463  -0.02468   1.88601
   A19        1.99261  -0.01962   0.00000  -0.03171  -0.03038   1.96223
   A20        1.88988   0.00407   0.00000   0.00876   0.00874   1.89863
   A21        1.88990   0.01054   0.00000   0.02130   0.02077   1.91067
   A22        1.88993   0.00711   0.00000   0.01578   0.01541   1.90534
   A23        1.88991   0.00596   0.00000   0.00880   0.00868   1.89859
   A24        1.91070  -0.00818   0.00000  -0.02383  -0.02374   1.88696
   A25        1.89140   0.02582   0.00000   0.04496   0.04422   1.93562
   A26        1.91541   0.00532   0.00000   0.01900   0.01881   1.93421
   A27        1.91543  -0.00118   0.00000   0.01371   0.01428   1.92971
   A28        1.91540  -0.01192   0.00000  -0.01877  -0.01932   1.89608
   A29        1.91544  -0.01384   0.00000  -0.03781  -0.03841   1.87703
   A30        1.91067  -0.00401   0.00000  -0.02055  -0.02117   1.88950
   A31        1.99298   0.00483   0.00000  -0.00460  -0.00521   1.98777
    D1       -0.51422  -0.00642   0.00000  -0.00451  -0.00373  -0.51794
    D2       -2.60566  -0.00649   0.00000  -0.01378  -0.01334  -2.61900
    D3        1.57716  -0.00219   0.00000   0.00574   0.00629   1.58345
    D4        1.59223  -0.00585   0.00000  -0.01682  -0.01661   1.57563
    D5       -0.49921  -0.00592   0.00000  -0.02610  -0.02622  -0.52543
    D6       -2.59957  -0.00162   0.00000  -0.00657  -0.00659  -2.60616
    D7       -2.62067  -0.00495   0.00000  -0.01299  -0.01247  -2.63314
    D8        1.57107  -0.00502   0.00000  -0.02226  -0.02208   1.54899
    D9       -0.52930  -0.00071   0.00000  -0.00273  -0.00245  -0.53174
   D10       -0.51468  -0.00341   0.00000  -0.01382  -0.01335  -0.52803
   D11       -2.62115  -0.01050   0.00000  -0.02734  -0.02658  -2.64773
   D12        1.59178   0.00371   0.00000   0.01504   0.01521   1.60700
   D13        1.05795  -0.00820   0.00000  -0.01166  -0.01094   1.04702
   D14       -1.04856  -0.00426   0.00000  -0.00865  -0.00851  -1.05707
   D15       -3.11872  -0.00128   0.00000   0.00686   0.00708  -3.11164
   D16       -3.13379  -0.00371   0.00000  -0.00105  -0.00046  -3.13425
   D17        1.04287   0.00023   0.00000   0.00196   0.00197   1.04485
   D18       -1.02728   0.00321   0.00000   0.01747   0.01756  -1.00972
   D19       -1.03343  -0.00893   0.00000  -0.02399  -0.02346  -1.05688
   D20       -3.13994  -0.00499   0.00000  -0.02098  -0.02103   3.12221
   D21        1.07309  -0.00202   0.00000  -0.00547  -0.00544   1.06764
   D22       -0.51468   0.00041   0.00000   0.00503   0.00489  -0.50978
   D23       -2.62115   0.00119   0.00000  -0.00074  -0.00109  -2.62224
   D24        1.59178   0.00280   0.00000   0.01091   0.01067   1.60245
   D25        1.59183  -0.00321   0.00000  -0.00405  -0.00392   1.58791
   D26       -0.51465  -0.00243   0.00000  -0.00981  -0.00990  -0.52454
   D27       -2.58489  -0.00081   0.00000   0.00184   0.00186  -2.58304
   D28       -2.62121  -0.00437   0.00000  -0.01310  -0.01290  -2.63411
   D29        1.55550  -0.00359   0.00000  -0.01886  -0.01888   1.53662
   D30       -0.51475  -0.00197   0.00000  -0.00721  -0.00713  -0.52188
   D31       -0.51422   0.00138   0.00000  -0.00573  -0.00632  -0.52053
   D32        1.57716   0.00564   0.00000   0.00982   0.00973   1.58689
   D33       -2.60566   0.00329   0.00000   0.00496   0.00459  -2.60107
   D34        1.59223  -0.00109   0.00000  -0.00388  -0.00417   1.58807
   D35       -2.59957   0.00317   0.00000   0.01167   0.01188  -2.58769
   D36       -0.49921   0.00082   0.00000   0.00682   0.00674  -0.49247
   D37       -2.62067  -0.00356   0.00000  -0.01858  -0.01901  -2.63968
   D38       -0.52930   0.00070   0.00000  -0.00303  -0.00296  -0.53225
   D39        1.57107  -0.00165   0.00000  -0.00788  -0.00810   1.56297
   D40        1.05795   0.01187   0.00000   0.02970   0.02943   1.08739
   D41       -1.03343  -0.00318   0.00000  -0.00950  -0.00903  -1.04246
   D42       -3.13379   0.01790   0.00000   0.05126   0.04992  -3.08387
         Item               Value     Threshold  Converged?
 Maximum Force            0.113723     0.000450     NO 
 RMS     Force            0.024134     0.000300     NO 
 Maximum Displacement     0.159967     0.001800     NO 
 RMS     Displacement     0.057849     0.001200     NO 
 Predicted change in Energy=-5.032745D-02
 GradGradGradGradGradGradGradGradGradGradGradGradGradGradGradGradGradGrad

                          Input orientation:                          
 ---------------------------------------------------------------------
 Center     Atomic      Atomic             Coordinates (Angstroms)
 Number     Number       Type             X           Y           Z
 ---------------------------------------------------------------------
      1          6           0        1.420150   -0.021913   -0.004422
      2          6           0        0.649052    1.183762    0.354165
      3          6           0       -0.635747    1.172572   -0.357068
      4          6           0       -1.446111   -0.008270   -0.017060
      5          6           0       -0.617615   -1.174104    0.345624
      6          8           0        0.623246   -1.140255   -0.329257
      7          1           0       -2.073351   -0.266369   -0.879225
      8          1           0       -2.107433    0.231974    0.826792
      9          1           0       -0.427873   -1.197304    1.430060
     10          1           0       -1.120157   -2.104783    0.065524
     11          1           0        2.048086    0.188313   -0.878515
     12          1           0        2.077120   -0.308024    0.831145
     13          1           0        1.215113    2.080538    0.078400
     14          1           0        0.470285    1.203569    1.438490
     15          1           0       -0.435997    1.173006   -1.437276
     16          1           0       -1.196369    2.083887   -0.114476
 ---------------------------------------------------------------------
                    Distance matrix (angstroms):
                    1          2          3          4          5
     1  C    0.000000
     2  C    1.475408   0.000000
     3  C    2.403720   1.468566   0.000000
     4  C    2.866322   2.438945   1.471966   0.000000
     5  C    2.366974   2.676575   2.449693   1.475505   0.000000
     6  O    1.411121   2.422558   2.633440   2.379306   1.412922
     7  H    3.609652   3.321988   2.099977   1.096984   2.107938
     8  H    3.633073   2.954232   2.110002   1.098704   2.104314
     9  H    2.618105   2.826091   2.975458   2.131846   1.101154
    10  H    3.285787   3.745389   3.339804   2.123307   1.094151
    11  H    1.096602   2.113697   2.905793   3.604187   3.234295
    12  H    1.100746   2.119508   3.311142   3.636270   2.871833
    13  H    2.114048   1.095755   2.107064   3.384427   3.744730
    14  H    2.118029   1.099141   2.109099   2.694393   2.833940
    15  H    2.631765   2.094447   1.098522   2.105412   2.953074
    16  H    3.360458   2.106046   1.097106   2.109260   3.340831
                    6          7          8          9         10
     6  O    0.000000
     7  H    2.887521   0.000000
     8  H    3.267426   1.777640   0.000000
     9  H    2.050196   2.984465   2.286414   0.000000
    10  H    2.031162   2.276158   2.648524   1.778969   0.000000
    11  H    2.024091   4.146441   4.492028   3.657844   4.023339
    12  H    2.037865   4.489266   4.219253   2.724795   3.746611
    13  H    3.300000   4.151989   3.875125   3.907766   4.792761
    14  H    2.939700   3.742006   2.821843   2.563386   3.919149
    15  H    2.775046   2.250367   2.967363   3.720222   3.670202
    16  H    3.708398   2.622525   2.268392   3.707073   4.193228
                   11         12         13         14         15
    11  H    0.000000
    12  H    1.780487   0.000000
    13  H    2.278168   2.648567   0.000000
    14  H    2.981395   2.288164   1.781485   0.000000
    15  H    2.729927   3.695259   2.418068   3.015346   0.000000
    16  H    3.834507   4.163072   2.419186   2.442213   1.776983
                   16
    16  H    0.000000
 Stoichiometry    C5H10O
 Framework group  C1[X(C5H10O)]
 Deg. of freedom    42
 Full point group                 C1      NOp   1
 Largest Abelian subgroup         C1      NOp   1
 Largest concise Abelian subgroup C1      NOp   1
                         Standard orientation:                         
 ---------------------------------------------------------------------
 Center     Atomic      Atomic             Coordinates (Angstroms)
 Number     Number       Type             X           Y           Z
 ---------------------------------------------------------------------
      1          6           0        1.347192   -0.471440   -0.046071
      2          6           0        0.982606    0.897440    0.366329
      3          6           0       -0.250126    1.303670   -0.320719
      4          6           0       -1.378849    0.413309   -0.004613
      5          6           0       -0.941823   -0.961790    0.303976
      6          8           0        0.245118   -1.281786   -0.392530
      7          1           0       -2.061614    0.390190   -0.862909
      8          1           0       -1.929011    0.811807    0.858909
      9          1           0       -0.759677   -1.081692    1.383322
     10          1           0       -1.706033   -1.684626    0.002882
     11          1           0        2.002466   -0.429842   -0.924378
     12          1           0        1.892377   -0.974440    0.767197
     13          1           0        1.792650    1.589268    0.109654
     14          1           0        0.826842    0.930502    1.453875
     15          1           0       -0.068180    1.283345   -1.403878
     16          1           0       -0.504761    2.332643   -0.037848
 ---------------------------------------------------------------------
 Rotational constants (GHZ):      4.8698134      4.6984239      2.7988105
 Standard basis: 6-31G(d) (6D, 7F)
 There are   110 symmetry adapted basis functions of A   symmetry.
 Integral buffers will be    131072 words long.
 Raffenetti 2 integral format.
 Two-electron integral symmetry is turned on.
   110 basis functions,   208 primitive gaussians,   110 cartesian basis functions
    24 alpha electrons       24 beta electrons
       nuclear repulsion energy       265.6943946609 Hartrees.
 NAtoms=   16 NActive=   16 NUniq=   16 SFac= 1.00D+00 NAtFMM=   50 NAOKFM=F Big=F
 One-electron integrals computed using PRISM.
 NBasis=   110 RedAO= T  NBF=   110
 NBsUse=   110 1.00D-06 NBFU=   110
 Initial guess read from the read-write file.
 B after Tr=     0.000000    0.000000    0.000000
         Rot=    1.000000    0.000000    0.000000    0.000000 Ang=   0.00 deg.
 Initial guess orbital symmetries:
       Occupied  (A) (A) (A) (A) (A) (A) (A) (A) (A) (A) (A) (A)
                 (A) (A) (A) (A) (A) (A) (A) (A) (A) (A) (A) (A)
       Virtual   (A) (A) (A) (A) (A) (A) (A) (A) (A) (A) (A) (A)
                 (A) (A) (A) (A) (A) (A) (A) (A) (A) (A) (A) (A)
                 (A) (A) (A) (A) (A) (A) (A) (A) (A) (A) (A) (A)
                 (A) (A) (A) (A) (A) (A) (A) (A) (A) (A) (A) (A)
                 (A) (A) (A) (A) (A) (A) (A) (A) (A) (A) (A) (A)
                 (A) (A) (A) (A) (A) (A) (A) (A) (A) (A) (A) (A)
                 (A) (A) (A) (A) (A) (A) (A) (A) (A) (A) (A) (A)
                 (A) (A)
 Harris functional with IExCor= 1009 diagonalized for initial guess.
 ExpMin= 1.61D-01 ExpMax= 5.48D+03 ExpMxC= 8.25D+02 IAcc=1 IRadAn=         1 AccDes= 0.00D+00
 HarFok:  IExCor= 1009 AccDes= 0.00D+00 IRadAn=         1 IDoV= 1
 ScaDFX=  1.000000  1.000000  1.000000  1.000000
 FoFCou: FMM=F IPFlag=           0 FMFlag=      100000 FMFlg1=           0
         NFxFlg=           0 DoJE=T BraDBF=F KetDBF=T FulRan=T
         Omega=  0.000000  0.000000  1.000000  0.000000  0.000000 ICntrl=     500 IOpCl=  0
         NMat0=    1 NMatS0=    1 NMatT0=    0 NMatD0=    1 NMtDS0=    0 NMtDT0=    0
         I1Cent=           4 NGrid=           0.
 Petite list used in FoFCou.
 Requested convergence on RMS density matrix=1.00D-08 within 128 cycles.
 Requested convergence on MAX density matrix=1.00D-06.
 Requested convergence on             energy=1.00D-06.
 No special actions if energy rises.
 Keep R1 ints in memory in canonical form, NReq=19758713.
 Integral accuracy reduced to 1.0D-05 until final iterations.
 Initial convergence to 1.0D-05 achieved.  Increase integral accuracy.
 SCF Done:  E(RM062X) =  -271.617824161     A.U. after   15 cycles
             Convg  =    0.5221D-08             -V/T =  2.0068
 Calling FoFJK, ICntrl=      2127 FMM=F ISym2X=0 I1Cent= 0 IOpClX= 0 NMat=1 NMatS=1 NMatT=0.
 ***** Axes restored to original set *****
 -------------------------------------------------------------------
 Center     Atomic                   Forces (Hartrees/Bohr)
 Number     Number              X              Y              Z
 -------------------------------------------------------------------
      1        6           0.025438129   -0.024863731    0.001025455
      2        6           0.009473624    0.024419949    0.023645450
      3        6          -0.011464526    0.035034798   -0.025892425
      4        6          -0.044815840   -0.004363572    0.000163931
      5        6           0.021727889   -0.020990424    0.012283552
      6        8          -0.003333707   -0.007763496   -0.013169481
      7        1          -0.003456581    0.001312448    0.003214552
      8        1          -0.002879972   -0.002496474   -0.002166917
      9        1          -0.000922483   -0.002263442    0.001877536
     10        1           0.004761407   -0.001701141    0.001654503
     11        1          -0.000562049   -0.004673079   -0.000685850
     12        1           0.004180454    0.000734722   -0.001503210
     13        1           0.001497479    0.000002398    0.005487121
     14        1           0.000400769    0.003834177   -0.000239506
     15        1          -0.000380336    0.003255282    0.000276395
     16        1           0.000335742    0.000521585   -0.005971105
 -------------------------------------------------------------------
 Cartesian Forces:  Max     0.044815840 RMS     0.012986229

 GradGradGradGradGradGradGradGradGradGradGradGradGradGradGradGradGradGrad
 Berny optimization.
 Using GEDIIS/GDIIS optimizer.
 Internal  Forces:  Max     0.041130720 RMS     0.009045554
 Search for a local minimum.
 Step number   2 out of a maximum of   99
 All quantities printed in internal units (Hartrees-Bohrs-Radians)
 Mixed Optimization -- RFO/linear search
 Update second derivatives using D2CorX and points    1    2
 DE= -4.64D-02 DEPred=-5.03D-02 R= 9.22D-01
 SS=  1.41D+00  RLast= 3.16D-01 DXNew= 5.0454D-01 9.4755D-01
 Trust test= 9.22D-01 RLast= 3.16D-01 DXMaxT set to 5.05D-01
 ITU=  1  0
 Use linear search instead of GDIIS.
     Eigenvalues ---    0.02022   0.02172   0.02501   0.04025   0.04174
     Eigenvalues ---    0.05242   0.05595   0.05900   0.06145   0.06329
     Eigenvalues ---    0.06730   0.07044   0.07240   0.08412   0.08665
     Eigenvalues ---    0.09053   0.09094   0.10123   0.11683   0.11843
     Eigenvalues ---    0.12238   0.12609   0.13571   0.19097   0.20458
     Eigenvalues ---    0.22822   0.34081   0.34122   0.34123   0.34125
     Eigenvalues ---    0.34127   0.34127   0.34128   0.34128   0.34130
     Eigenvalues ---    0.34152   0.39531   0.40480   0.42892   0.45455
     Eigenvalues ---    0.45629   0.49781
 RFO step:  Lambda=-4.87820863D-03 EMin= 2.02231207D-02
 Quartic linear search produced a step of  0.83512.
 Iteration  1 RMS(Cart)=  0.05852506 RMS(Int)=  0.00170874
 Iteration  2 RMS(Cart)=  0.00195588 RMS(Int)=  0.00083916
 Iteration  3 RMS(Cart)=  0.00000262 RMS(Int)=  0.00083916
 Iteration  4 RMS(Cart)=  0.00000000 RMS(Int)=  0.00083916
 Variable       Old X    -DE/DX   Delta X   Delta X   Delta X     New X
                                 (Linear)    (Quad)   (Total)
    R1        2.78812   0.04037   0.11792  -0.01131   0.10646   2.89458
    R2        2.66663   0.00930   0.01843  -0.00259   0.01459   2.68122
    R3        2.07228  -0.00067   0.00094  -0.00496  -0.00402   2.06825
    R4        2.08011   0.00116   0.00749  -0.00509   0.00240   2.08250
    R5        2.77519   0.03921   0.10809   0.00475   0.11338   2.88857
    R6        2.07068  -0.00061  -0.00047  -0.00251  -0.00298   2.06770
    R7        2.07708  -0.00023   0.00494  -0.00864  -0.00370   2.07338
    R8        2.78161   0.04113   0.11445   0.00740   0.12350   2.90511
    R9        2.07590  -0.00034   0.00401  -0.00783  -0.00382   2.07208
   R10        2.07323  -0.00106   0.00167  -0.00811  -0.00644   2.06679
   R11        2.78830   0.04108   0.11807  -0.01279   0.10563   2.89393
   R12        2.07300  -0.00086   0.00154  -0.00686  -0.00532   2.06768
   R13        2.07625  -0.00048   0.00426  -0.00892  -0.00466   2.07159
   R14        2.67003   0.00690   0.02027  -0.01833   0.00060   2.67063
   R15        2.08088   0.00173   0.00812  -0.00302   0.00510   2.08598
   R16        2.06765  -0.00116  -0.00300  -0.00164  -0.00464   2.06300
    A1        1.99153   0.00108  -0.00090  -0.01975  -0.02333   1.96820
    A2        1.91382   0.00240   0.01995   0.00030   0.02065   1.93447
    A3        1.91755   0.00184   0.02308   0.01054   0.03283   1.95038
    A4        1.86692  -0.00243  -0.01917  -0.03551  -0.05464   1.81228
    A5        1.88157  -0.00104  -0.00695   0.05125   0.04556   1.92714
    A6        1.88929  -0.00219  -0.01788  -0.00696  -0.02544   1.86385
    A7        1.91060   0.00057   0.01603  -0.00550   0.01054   1.92114
    A8        1.91520   0.00061  -0.00020  -0.01244  -0.01335   1.90185
    A9        1.91718  -0.00003   0.00148   0.02462   0.02617   1.94335
   A10        1.91379  -0.00007  -0.00138   0.03454   0.03372   1.94750
   A11        1.91306   0.00121  -0.00195  -0.00326  -0.00627   1.90679
   A12        1.89394  -0.00230  -0.01397  -0.03801  -0.05169   1.84225
   A13        1.95615  -0.00726  -0.03076  -0.01255  -0.04217   1.91398
   A14        1.89351   0.00205   0.00310  -0.00027   0.00294   1.89645
   A15        1.91096   0.00283   0.01764   0.01596   0.03383   1.94479
   A16        1.90452   0.00159   0.01227   0.01127   0.02332   1.92784
   A17        1.91131   0.00434   0.01796   0.00940   0.02730   1.93861
   A18        1.88601  -0.00352  -0.02061  -0.02457  -0.04526   1.84076
   A19        1.96223  -0.00734  -0.02537  -0.01801  -0.04204   1.92018
   A20        1.89863   0.00205   0.00730   0.02150   0.02881   1.92744
   A21        1.91067   0.00422   0.01734   0.01161   0.02859   1.93926
   A22        1.90534   0.00247   0.01287   0.01254   0.02546   1.93080
   A23        1.89859   0.00218   0.00725  -0.00313   0.00436   1.90295
   A24        1.88696  -0.00350  -0.01983  -0.02510  -0.04505   1.84190
   A25        1.93562   0.00887   0.03693  -0.02512   0.00860   1.94422
   A26        1.93421   0.00117   0.01571   0.00106   0.01662   1.95083
   A27        1.92971  -0.00019   0.01192   0.01882   0.03166   1.96137
   A28        1.89608  -0.00262  -0.01614   0.04497   0.02846   1.92454
   A29        1.87703  -0.00606  -0.03208  -0.02620  -0.05765   1.81938
   A30        1.88950  -0.00164  -0.01768  -0.01357  -0.03205   1.85744
   A31        1.98777   0.00158  -0.00435  -0.02613  -0.03388   1.95389
    D1       -0.51794  -0.00193  -0.00311   0.02703   0.02498  -0.49296
    D2       -2.61900  -0.00258  -0.01114  -0.00432  -0.01488  -2.63388
    D3        1.58345  -0.00011   0.00525   0.03487   0.04087   1.62433
    D4        1.57563  -0.00260  -0.01387  -0.03160  -0.04524   1.53039
    D5       -0.52543  -0.00325  -0.02190  -0.06295  -0.08510  -0.61053
    D6       -2.60616  -0.00077  -0.00550  -0.02375  -0.02935  -2.63551
    D7       -2.63314  -0.00270  -0.01041  -0.03354  -0.04294  -2.67608
    D8        1.54899  -0.00335  -0.01844  -0.06490  -0.08280   1.46619
    D9       -0.53174  -0.00087  -0.00205  -0.02570  -0.02705  -0.55879
   D10       -0.52803  -0.00238  -0.01115  -0.08697  -0.09557  -0.62360
   D11       -2.64773  -0.00436  -0.02220  -0.04963  -0.07105  -2.71878
   D12        1.60700  -0.00007   0.01270  -0.04902  -0.03489   1.57211
   D13        1.04702  -0.00239  -0.00913   0.02085   0.01213   1.05914
   D14       -1.05707  -0.00119  -0.00711   0.01485   0.00744  -1.04963
   D15       -3.11164   0.00025   0.00591   0.03552   0.04127  -3.07037
   D16       -3.13425  -0.00133  -0.00038   0.02355   0.02401  -3.11024
   D17        1.04485  -0.00013   0.00165   0.01754   0.01933   1.06418
   D18       -1.00972   0.00131   0.01466   0.03821   0.05316  -0.95656
   D19       -1.05688  -0.00345  -0.01959  -0.00397  -0.02296  -1.07984
   D20        3.12221  -0.00226  -0.01756  -0.00998  -0.02764   3.09457
   D21        1.06764  -0.00081  -0.00455   0.01069   0.00619   1.07383
   D22       -0.50978  -0.00022   0.00409  -0.00219   0.00173  -0.50805
   D23       -2.62224   0.00000  -0.00091  -0.02112  -0.02213  -2.64437
   D24        1.60245   0.00062   0.00891  -0.01000  -0.00140   1.60105
   D25        1.58791  -0.00120  -0.00327  -0.00296  -0.00630   1.58162
   D26       -0.52454  -0.00098  -0.00826  -0.02189  -0.03015  -0.55469
   D27       -2.58304  -0.00036   0.00155  -0.01077  -0.00943  -2.59247
   D28       -2.63411  -0.00199  -0.01078  -0.02061  -0.03125  -2.66536
   D29        1.53662  -0.00177  -0.01577  -0.03954  -0.05510   1.48152
   D30       -0.52188  -0.00116  -0.00595  -0.02842  -0.03438  -0.55626
   D31       -0.52053  -0.00067  -0.00528  -0.05048  -0.05589  -0.57642
   D32        1.58689   0.00275   0.00813  -0.00982  -0.00157   1.58532
   D33       -2.60107   0.00132   0.00383  -0.01379  -0.00964  -2.61071
   D34        1.58807  -0.00117  -0.00348  -0.02644  -0.03017   1.55790
   D35       -2.58769   0.00225   0.00992   0.01423   0.02415  -2.56355
   D36       -0.49247   0.00082   0.00563   0.01026   0.01608  -0.47639
   D37       -2.63968  -0.00273  -0.01587  -0.05126  -0.06752  -2.70720
   D38       -0.53225   0.00069  -0.00247  -0.01059  -0.01321  -0.54546
   D39        1.56297  -0.00074  -0.00677  -0.01457  -0.02128   1.54169
   D40        1.08739   0.00641   0.02458   0.10867   0.13334   1.22073
   D41       -1.04246   0.00104  -0.00754   0.09360   0.08663  -0.95583
   D42       -3.08387   0.00763   0.04169   0.10007   0.14061  -2.94327
         Item               Value     Threshold  Converged?
 Maximum Force            0.041131     0.000450     NO 
 RMS     Force            0.009046     0.000300     NO 
 Maximum Displacement     0.174750     0.001800     NO 
 RMS     Displacement     0.058433     0.001200     NO 
 Predicted change in Energy=-7.312814D-03
 GradGradGradGradGradGradGradGradGradGradGradGradGradGradGradGradGradGrad

                          Input orientation:                          
 ---------------------------------------------------------------------
 Center     Atomic      Atomic             Coordinates (Angstroms)
 Number     Number       Type             X           Y           Z
 ---------------------------------------------------------------------
      1          6           0        1.447328   -0.058985    0.006042
      2          6           0        0.653283    1.196996    0.377858
      3          6           0       -0.668491    1.228273   -0.389245
      4          6           0       -1.508257   -0.006344   -0.023377
      5          6           0       -0.589654   -1.172172    0.353733
      6          8           0        0.614757   -1.139313   -0.384884
      7          1           0       -2.161747   -0.284200   -0.855813
      8          1           0       -2.178509    0.207067    0.817431
      9          1           0       -0.374035   -1.190017    1.436176
     10          1           0       -1.027683   -2.142035    0.110231
     11          1           0        2.072109    0.121795   -0.874207
     12          1           0        2.124085   -0.369607    0.818414
     13          1           0        1.263541    2.079742    0.164380
     14          1           0        0.447466    1.235092    1.454890
     15          1           0       -0.450323    1.238646   -1.463770
     16          1           0       -1.221471    2.151661   -0.194960
 ---------------------------------------------------------------------
                    Distance matrix (angstroms):
                    1          2          3          4          5
     1  C    0.000000
     2  C    1.531746   0.000000
     3  C    2.507983   1.528565   0.000000
     4  C    2.956201   2.506247   1.537319   0.000000
     5  C    2.347205   2.675525   2.514034   1.531404   0.000000
     6  O    1.418840   2.457967   2.692993   2.433412   1.413238
     7  H    3.717383   3.411785   2.176023   1.094167   2.173240
     8  H    3.725028   3.031869   2.186112   1.096239   2.154478
     9  H    2.577185   2.805932   3.044174   2.194957   1.103854
    10  H    3.236608   3.747853   3.426000   2.193166   1.091694
    11  H    1.094473   2.176417   2.995057   3.682303   3.204243
    12  H    1.102014   2.193535   3.436589   3.746263   2.867825
    13  H    2.152441   1.094179   2.182715   3.474173   3.747684
    14  H    2.184839   1.097183   2.155514   2.747961   2.843076
    15  H    2.728603   2.147387   1.096498   2.178063   3.022379
    16  H    3.471289   2.180414   1.093699   2.183730   3.427554
                    6          7          8          9         10
     6  O    0.000000
     7  H    2.943122   0.000000
     8  H    3.325753   1.743953   0.000000
     9  H    2.072810   3.044607   2.364490   0.000000
    10  H    1.987007   2.381364   2.709762   1.758330   0.000000
    11  H    1.988393   4.253316   4.575660   3.611418   3.962670
    12  H    2.078087   4.602031   4.341068   2.700983   3.684653
    13  H    3.329403   4.285045   3.972543   3.871750   4.803753
    14  H    3.008414   3.802050   2.891182   2.560540   3.922901
    15  H    2.820121   2.370156   3.042147   3.783373   3.773569
    16  H    3.773369   2.693374   2.392134   3.813865   4.308889
                   11         12         13         14         15
    11  H    0.000000
    12  H    1.763277   0.000000
    13  H    2.359237   2.677239   0.000000
    14  H    3.050178   2.406493   1.744944   0.000000
    15  H    2.820922   3.797686   2.509112   3.053623   0.000000
    16  H    3.928027   4.310042   2.511888   2.519416   1.743027
                   16
    16  H    0.000000
 Stoichiometry    C5H10O
 Framework group  C1[X(C5H10O)]
 Deg. of freedom    42
 Full point group                 C1      NOp   1
 Largest Abelian subgroup         C1      NOp   1
 Largest concise Abelian subgroup C1      NOp   1
                         Standard orientation:                         
 ---------------------------------------------------------------------
 Center     Atomic      Atomic             Coordinates (Angstroms)
 Number     Number       Type             X           Y           Z
 ---------------------------------------------------------------------
      1          6           0        1.456860   -0.111595   -0.041941
      2          6           0        0.700465    1.149479    0.386784
      3          6           0       -0.640287    1.230578   -0.342818
      4          6           0       -1.496620    0.003767    0.010703
      5          6           0       -0.593829   -1.191451    0.329484
      6          8           0        0.590905   -1.162505   -0.440457
      7          1           0       -2.177935   -0.236180   -0.811146
      8          1           0       -2.139439    0.206795    0.875170
      9          1           0       -0.349885   -1.245066    1.404709
     10          1           0       -1.059148   -2.144488    0.070651
     11          1           0        2.061744    0.081410   -0.933420
     12          1           0        2.148116   -0.459657    0.742567
     13          1           0        1.323844    2.025047    0.181829
     14          1           0        0.524292    1.160752    1.469672
     15          1           0       -0.450651    1.267411   -1.422165
     16          1           0       -1.167711    2.159348   -0.107473
 ---------------------------------------------------------------------
 Rotational constants (GHZ):      4.7222131      4.4483777      2.6986496
 Standard basis: 6-31G(d) (6D, 7F)
 There are   110 symmetry adapted basis functions of A   symmetry.
 Integral buffers will be    131072 words long.
 Raffenetti 2 integral format.
 Two-electron integral symmetry is turned on.
   110 basis functions,   208 primitive gaussians,   110 cartesian basis functions
    24 alpha electrons       24 beta electrons
       nuclear repulsion energy       260.8051618999 Hartrees.
 NAtoms=   16 NActive=   16 NUniq=   16 SFac= 1.00D+00 NAtFMM=   50 NAOKFM=F Big=F
 One-electron integrals computed using PRISM.
 NBasis=   110 RedAO= T  NBF=   110
 NBsUse=   110 1.00D-06 NBFU=   110
 Initial guess read from the read-write file.
 B after Tr=     0.000000    0.000000    0.000000
         Rot=    1.000000    0.000000    0.000000    0.000000 Ang=   0.00 deg.
 Initial guess orbital symmetries:
       Occupied  (A) (A) (A) (A) (A) (A) (A) (A) (A) (A) (A) (A)
                 (A) (A) (A) (A) (A) (A) (A) (A) (A) (A) (A) (A)
       Virtual   (A) (A) (A) (A) (A) (A) (A) (A) (A) (A) (A) (A)
                 (A) (A) (A) (A) (A) (A) (A) (A) (A) (A) (A) (A)
                 (A) (A) (A) (A) (A) (A) (A) (A) (A) (A) (A) (A)
                 (A) (A) (A) (A) (A) (A) (A) (A) (A) (A) (A) (A)
                 (A) (A) (A) (A) (A) (A) (A) (A) (A) (A) (A) (A)
                 (A) (A) (A) (A) (A) (A) (A) (A) (A) (A) (A) (A)
                 (A) (A) (A) (A) (A) (A) (A) (A) (A) (A) (A) (A)
                 (A) (A)
 Harris functional with IExCor= 1009 diagonalized for initial guess.
 ExpMin= 1.61D-01 ExpMax= 5.48D+03 ExpMxC= 8.25D+02 IAcc=1 IRadAn=         1 AccDes= 0.00D+00
 HarFok:  IExCor= 1009 AccDes= 0.00D+00 IRadAn=         1 IDoV= 1
 ScaDFX=  1.000000  1.000000  1.000000  1.000000
 FoFCou: FMM=F IPFlag=           0 FMFlag=      100000 FMFlg1=           0
         NFxFlg=           0 DoJE=T BraDBF=F KetDBF=T FulRan=T
         Omega=  0.000000  0.000000  1.000000  0.000000  0.000000 ICntrl=     500 IOpCl=  0
         NMat0=    1 NMatS0=    1 NMatT0=    0 NMatD0=    1 NMtDS0=    0 NMtDT0=    0
         I1Cent=           4 NGrid=           0.
 Petite list used in FoFCou.
 Requested convergence on RMS density matrix=1.00D-08 within 128 cycles.
 Requested convergence on MAX density matrix=1.00D-06.
 Requested convergence on             energy=1.00D-06.
 No special actions if energy rises.
 Keep R1 ints in memory in canonical form, NReq=19758713.
 Integral accuracy reduced to 1.0D-05 until final iterations.
 Initial convergence to 1.0D-05 achieved.  Increase integral accuracy.
 SCF Done:  E(RM062X) =  -271.628709486     A.U. after   15 cycles
             Convg  =    0.4315D-08             -V/T =  2.0085
 Calling FoFJK, ICntrl=      2127 FMM=F ISym2X=0 I1Cent= 0 IOpClX= 0 NMat=1 NMatS=1 NMatT=0.
 ***** Axes restored to original set *****
 -------------------------------------------------------------------
 Center     Atomic                   Forces (Hartrees/Bohr)
 Number     Number              X              Y              Z
 -------------------------------------------------------------------
      1        6           0.003017385   -0.004016334   -0.005550197
      2        6           0.000794779    0.004840699    0.003111317
      3        6           0.001726639    0.001653035   -0.003214373
      4        6          -0.004268783    0.000194866    0.000661102
      5        6           0.003243186   -0.009790948   -0.000172647
      6        8          -0.001164443    0.004184647    0.002747062
      7        1           0.001798552   -0.000378636   -0.001599431
      8        1           0.001448069    0.001367026    0.001348258
      9        1           0.000234759    0.002788600   -0.001192354
     10        1          -0.004366014    0.000243710    0.000683902
     11        1           0.000697955    0.003256470    0.000169148
     12        1          -0.002757438    0.000238202    0.001600507
     13        1          -0.000284367    0.000764883   -0.001085372
     14        1          -0.000340781   -0.002380141    0.000198829
     15        1           0.000150501   -0.002902911    0.000082743
     16        1           0.000070000   -0.000063169    0.002211504
 -------------------------------------------------------------------
 Cartesian Forces:  Max     0.009790948 RMS     0.002662539

 GradGradGradGradGradGradGradGradGradGradGradGradGradGradGradGradGradGrad
 Berny optimization.
 Using GEDIIS/GDIIS optimizer.
 Internal  Forces:  Max     0.004559923 RMS     0.001260961
 Search for a local minimum.
 Step number   3 out of a maximum of   99
 All quantities printed in internal units (Hartrees-Bohrs-Radians)
 Mixed Optimization -- RFO/linear search
 Update second derivatives using D2CorX and points    2    3
 DE= -1.09D-02 DEPred=-7.31D-03 R= 1.49D+00
 SS=  1.41D+00  RLast= 4.36D-01 DXNew= 8.4853D-01 1.3079D+00
 Trust test= 1.49D+00 RLast= 4.36D-01 DXMaxT set to 8.49D-01
 ITU=  1  1  0
 Use linear search instead of GDIIS.
     Eigenvalues ---    0.02030   0.02198   0.02482   0.03961   0.04212
     Eigenvalues ---    0.05307   0.05575   0.05946   0.06113   0.06266
     Eigenvalues ---    0.06680   0.06904   0.07202   0.08341   0.08810
     Eigenvalues ---    0.08848   0.08855   0.10019   0.11535   0.12026
     Eigenvalues ---    0.12390   0.12562   0.13668   0.18752   0.20292
     Eigenvalues ---    0.22675   0.33831   0.34122   0.34125   0.34126
     Eigenvalues ---    0.34127   0.34128   0.34128   0.34129   0.34133
     Eigenvalues ---    0.34189   0.36025   0.40328   0.42010   0.43147
     Eigenvalues ---    0.45624   0.45850
 RFO step:  Lambda=-1.15616668D-03 EMin= 2.03035745D-02
 Quartic linear search produced a step of -0.07746.
 Iteration  1 RMS(Cart)=  0.01335056 RMS(Int)=  0.00019283
 Iteration  2 RMS(Cart)=  0.00017291 RMS(Int)=  0.00008512
 Iteration  3 RMS(Cart)=  0.00000002 RMS(Int)=  0.00008512
 Variable       Old X    -DE/DX   Delta X   Delta X   Delta X     New X
                                 (Linear)    (Quad)   (Total)
    R1        2.89458   0.00083  -0.00825   0.01271   0.00445   2.89903
    R2        2.68122   0.00117  -0.00113   0.00431   0.00325   2.68447
    R3        2.06825   0.00079   0.00031   0.00183   0.00215   2.07040
    R4        2.08250  -0.00057  -0.00019  -0.00116  -0.00135   2.08116
    R5        2.88857  -0.00042  -0.00878   0.01047   0.00166   2.89022
    R6        2.06770   0.00067   0.00023   0.00156   0.00179   2.06949
    R7        2.07338   0.00017   0.00029   0.00030   0.00058   2.07396
    R8        2.90511   0.00104  -0.00957   0.01476   0.00509   2.91021
    R9        2.07208  -0.00007   0.00030  -0.00038  -0.00008   2.07200
   R10        2.06679   0.00030   0.00050   0.00033   0.00082   2.06762
   R11        2.89393   0.00127  -0.00818   0.01486   0.00666   2.90060
   R12        2.06768   0.00025   0.00041   0.00028   0.00069   2.06837
   R13        2.07159   0.00040   0.00036   0.00082   0.00118   2.07278
   R14        2.67063   0.00070  -0.00005   0.00282   0.00287   2.67351
   R15        2.08598  -0.00116  -0.00040  -0.00251  -0.00291   2.08307
   R16        2.06300   0.00138   0.00036   0.00327   0.00363   2.06663
    A1        1.96820   0.00006   0.00181  -0.00355  -0.00165   1.96655
    A2        1.93447  -0.00263  -0.00160  -0.00942  -0.01109   1.92338
    A3        1.95038  -0.00130  -0.00254  -0.01494  -0.01761   1.93277
    A4        1.81228   0.00278   0.00423   0.02480   0.02905   1.84133
    A5        1.92714  -0.00035  -0.00353  -0.00622  -0.01004   1.91710
    A6        1.86385   0.00178   0.00197   0.01295   0.01485   1.87870
    A7        1.92114  -0.00214  -0.00082  -0.01192  -0.01276   1.90838
    A8        1.90185   0.00080   0.00103   0.00487   0.00594   1.90779
    A9        1.94335   0.00004  -0.00203  -0.00429  -0.00637   1.93698
   A10        1.94750   0.00026  -0.00261   0.00234  -0.00030   1.94720
   A11        1.90679   0.00070   0.00049   0.00073   0.00117   1.90796
   A12        1.84225   0.00047   0.00400   0.00913   0.01312   1.85537
   A13        1.91398   0.00126   0.00327  -0.00231   0.00088   1.91486
   A14        1.89645   0.00019  -0.00023   0.00685   0.00664   1.90309
   A15        1.94479  -0.00109  -0.00262  -0.00800  -0.01068   1.93411
   A16        1.92784  -0.00104  -0.00181  -0.00520  -0.00699   1.92085
   A17        1.93861  -0.00083  -0.00211  -0.00507  -0.00724   1.93137
   A18        1.84076   0.00149   0.00351   0.01444   0.01797   1.85873
   A19        1.92018   0.00111   0.00326  -0.00114   0.00208   1.92227
   A20        1.92744  -0.00033  -0.00223  -0.00208  -0.00433   1.92311
   A21        1.93926  -0.00145  -0.00221  -0.00814  -0.01036   1.92889
   A22        1.93080  -0.00089  -0.00197  -0.00586  -0.00788   1.92293
   A23        1.90295   0.00012  -0.00034   0.00392   0.00357   1.90652
   A24        1.84190   0.00143   0.00349   0.01376   0.01728   1.85918
   A25        1.94422  -0.00326  -0.00067  -0.01204  -0.01260   1.93162
   A26        1.95083  -0.00095  -0.00129  -0.01413  -0.01564   1.93519
   A27        1.96137  -0.00206  -0.00245  -0.01144  -0.01391   1.94746
   A28        1.92454   0.00090  -0.00220  -0.00282  -0.00539   1.91915
   A29        1.81938   0.00456   0.00447   0.03319   0.03758   1.85695
   A30        1.85744   0.00138   0.00248   0.01122   0.01356   1.87100
   A31        1.95389   0.00245   0.00262   0.00749   0.01043   1.96432
    D1       -0.49296  -0.00088  -0.00193  -0.00685  -0.00881  -0.50177
    D2       -2.63388  -0.00035   0.00115  -0.00529  -0.00411  -2.63798
    D3        1.62433  -0.00142  -0.00317  -0.01689  -0.02000   1.60433
    D4        1.53039   0.00093   0.00350   0.01586   0.01928   1.54967
    D5       -0.61053   0.00146   0.00659   0.01742   0.02399  -0.58654
    D6       -2.63551   0.00038   0.00227   0.00582   0.00809  -2.62742
    D7       -2.67608   0.00057   0.00333   0.01610   0.01930  -2.65678
    D8        1.46619   0.00110   0.00641   0.01765   0.02401   1.49019
    D9       -0.55879   0.00002   0.00209   0.00606   0.00811  -0.55068
   D10       -0.62360  -0.00047   0.00740  -0.00965  -0.00242  -0.62602
   D11       -2.71878   0.00093   0.00550  -0.01198  -0.00654  -2.72532
   D12        1.57211  -0.00242   0.00270  -0.03705  -0.03444   1.53767
   D13        1.05914   0.00054  -0.00094   0.01675   0.01579   1.07493
   D14       -1.04963   0.00093  -0.00058   0.02027   0.01970  -1.02992
   D15       -3.07037  -0.00037  -0.00320   0.00316  -0.00001  -3.07038
   D16       -3.11024   0.00026  -0.00186   0.01633   0.01443  -3.09581
   D17        1.06418   0.00065  -0.00150   0.01986   0.01834   1.08252
   D18       -0.95656  -0.00065  -0.00412   0.00274  -0.00137  -0.95794
   D19       -1.07984   0.00143   0.00178   0.02933   0.03108  -1.04877
   D20        3.09457   0.00182   0.00214   0.03286   0.03499   3.12956
   D21        1.07383   0.00051  -0.00048   0.01575   0.01528   1.08911
   D22       -0.50805  -0.00071  -0.00013  -0.01714  -0.01728  -0.52533
   D23       -2.64437  -0.00011   0.00171  -0.00760  -0.00590  -2.65027
   D24        1.60105  -0.00078   0.00011  -0.01831  -0.01819   1.58286
   D25        1.58162  -0.00033   0.00049  -0.01338  -0.01289   1.56873
   D26       -0.55469   0.00027   0.00234  -0.00384  -0.00151  -0.55621
   D27       -2.59247  -0.00040   0.00073  -0.01455  -0.01380  -2.60627
   D28       -2.66536   0.00036   0.00242  -0.00188   0.00052  -2.66484
   D29        1.48152   0.00096   0.00427   0.00766   0.01190   1.49341
   D30       -0.55626   0.00029   0.00266  -0.00305  -0.00039  -0.55664
   D31       -0.57642   0.00097   0.00433   0.00908   0.01329  -0.56313
   D32        1.58532  -0.00099   0.00012  -0.01401  -0.01385   1.57147
   D33       -2.61071  -0.00131   0.00075  -0.01743  -0.01670  -2.62741
   D34        1.55790   0.00070   0.00234   0.00176   0.00401   1.56191
   D35       -2.56355  -0.00126  -0.00187  -0.02133  -0.02312  -2.58667
   D36       -0.47639  -0.00157  -0.00125  -0.02475  -0.02598  -0.50237
   D37       -2.70720   0.00199   0.00523   0.01737   0.02251  -2.68469
   D38       -0.54546   0.00003   0.00102  -0.00573  -0.00463  -0.55009
   D39        1.54169  -0.00028   0.00165  -0.00914  -0.00748   1.53421
   D40        1.22073  -0.00070  -0.01033   0.00753  -0.00272   1.21801
   D41       -0.95583   0.00222  -0.00671   0.03655   0.02989  -0.92594
   D42       -2.94327  -0.00212  -0.01089   0.00771  -0.00329  -2.94656
         Item               Value     Threshold  Converged?
 Maximum Force            0.004560     0.000450     NO 
 RMS     Force            0.001261     0.000300     NO 
 Maximum Displacement     0.055678     0.001800     NO 
 RMS     Displacement     0.013345     0.001200     NO 
 Predicted change in Energy=-6.483048D-04
 GradGradGradGradGradGradGradGradGradGradGradGradGradGradGradGradGradGrad

                          Input orientation:                          
 ---------------------------------------------------------------------
 Center     Atomic      Atomic             Coordinates (Angstroms)
 Number     Number       Type             X           Y           Z
 ---------------------------------------------------------------------
      1          6           0        1.449039   -0.055142   -0.004239
      2          6           0        0.655685    1.200455    0.379863
      3          6           0       -0.662687    1.223435   -0.395094
      4          6           0       -1.506653   -0.009239   -0.021091
      5          6           0       -0.590896   -1.183592    0.350786
      6          8           0        0.611402   -1.134501   -0.393265
      7          1           0       -2.158231   -0.288055   -0.855183
      8          1           0       -2.164814    0.218213    0.826378
      9          1           0       -0.365987   -1.179952    1.429907
     10          1           0       -1.057146   -2.145743    0.120854
     11          1           0        2.084706    0.149922   -0.872705
     12          1           0        2.104903   -0.370131    0.822494
     13          1           0        1.260808    2.089050    0.171222
     14          1           0        0.444217    1.217555    1.456654
     15          1           0       -0.445927    1.218703   -1.469897
     16          1           0       -1.216018    2.145624   -0.193785
 ---------------------------------------------------------------------
                    Distance matrix (angstroms):
                    1          2          3          4          5
     1  C    0.000000
     2  C    1.534102   0.000000
     3  C    2.499382   1.529441   0.000000
     4  C    2.956096   2.509946   1.540014   0.000000
     5  C    2.358130   2.690445   2.520966   1.534929   0.000000
     6  O    1.420560   2.460022   2.680143   2.427115   1.414760
     7  H    3.713590   3.414546   2.175532   1.094533   2.170919
     8  H    3.718142   3.019833   2.181479   1.096865   2.160662
     9  H    2.572216   2.795129   3.032314   2.185654   1.102316
    10  H    3.266072   3.768013   3.431205   2.187888   1.093614
    11  H    1.095608   2.171324   2.988095   3.694380   3.230176
    12  H    1.101301   2.182406   3.417825   3.726287   2.855094
    13  H    2.159578   1.095128   2.183994   3.478310   3.764470
    14  H    2.182575   1.097492   2.157368   2.737635   2.838999
    15  H    2.713251   2.153020   1.096453   2.175321   3.017768
    16  H    3.461478   2.173865   1.094136   2.181221   3.430891
                    6          7          8          9         10
     6  O    0.000000
     7  H    2.932697   0.000000
     8  H    3.320352   1.756132   0.000000
     9  H    2.069134   3.037970   2.356881   0.000000
    10  H    2.017669   2.369820   2.704252   1.767505   0.000000
    11  H    2.012518   4.265519   4.577113   3.616142   4.016028
    12  H    2.071926   4.582101   4.310063   2.670217   3.693731
    13  H    3.336413   4.288818   3.957795   3.862269   4.827931
[...]
 Recover connectivity data from disk.
                          Input orientation:                          
 ---------------------------------------------------------------------
 Center     Atomic      Atomic             Coordinates (Angstroms)
 Number     Number       Type             X           Y           Z
 ---------------------------------------------------------------------
      1          6           0        1.443665   -0.053035    0.007507
      2          6           0        0.646893    1.212173    0.375912
      3          6           0       -0.663615    1.216614   -0.410562
      4          6           0       -1.508240    0.000689    0.006593
      5          6           0       -0.578724   -1.185758    0.322820
      6          8           0        0.605595   -1.104008   -0.443113
      7          1           0       -2.205663   -0.262664   -0.794401
      8          1           0       -2.108422    0.238103    0.892873
      9          1           0       -0.327522   -1.207534    1.395657
     10          1           0       -1.045830   -2.141619    0.074406
     11          1           0        2.125238    0.151063   -0.823750
     12          1           0        2.043478   -0.396816    0.864871
     13          1           0        1.247569    2.102678    0.166813
     14          1           0        0.421650    1.226238    1.449619
     15          1           0       -0.435586    1.154342   -1.480299
     16          1           0       -1.218085    2.146134   -0.252045
 ---------------------------------------------------------------------
                    Distance matrix (angstroms):
                    1          2          3          4          5
     1  C    0.000000
     2  C    1.539908   0.000000
     3  C    2.495480   1.528395   0.000000
     4  C    2.952393   2.499738   1.538143   0.000000
     5  C    2.339346   2.693517   2.513255   1.540018   0.000000
     6  O    1.417733   2.457072   2.645230   2.427115   1.412780
     7  H    3.742272   3.417873   2.171062   1.094233   2.178811
     8  H    3.672323   2.967798   2.178048   1.096393   2.166176
     9  H    2.529215   2.800776   3.041690   2.187097   1.102069
    10  H    3.250269   3.768838   3.414530   2.192694   1.092505
    11  H    1.094160   2.179598   3.013938   3.730179   3.226937
    12  H    1.101379   2.185951   3.399742   3.675507   2.791450
    13  H    2.170468   1.094318   2.184284   3.469656   3.764771
    14  H    2.181912   1.097169   2.153640   2.703474   2.843968
    15  H    2.683824   2.149564   1.095542   2.166183   2.957668
    16  H    3.462459   2.178246   1.093879   2.180371   3.441040
                    6          7          8          9         10
     6  O    0.000000
     7  H    2.955408   0.000000
     8  H    3.309382   1.762703   0.000000
     9  H    2.064582   3.035877   2.348247   0.000000
    10  H    2.017837   2.372870   2.731679   1.770363   0.000000
    11  H    2.007337   4.350717   4.569272   3.575973   4.014816
    12  H    2.068442   4.563593   4.200260   2.561374   3.634969
    13  H    3.326707   4.294600   3.907234   3.866325   4.825171
    14  H    3.007710   3.762344   2.772660   2.547040   3.922649
    15  H    2.694431   2.368868   3.044638   3.723071   3.694979
    16  H    3.731720   2.659280   2.396689   3.841238   4.303611
                   11         12         13         14         15
    11  H    0.000000
    12  H    1.777160   0.000000
    13  H    2.358033   2.714449   0.000000
    14  H    3.037502   2.367818   1.759511   0.000000
    15  H    2.827622   3.748556   2.538766   3.053595   0.000000
    16  H    3.935093   4.283911   2.501355   2.535863   1.761977
                   16
    16  H    0.000000
 Stoichiometry    C5H10O
 Framework group  C1[X(C5H10O)]
 Deg. of freedom    42
 Full point group                 C1      NOp   1
 Largest Abelian subgroup         C1      NOp   1
 Largest concise Abelian subgroup C1      NOp   1
                         Standard orientation:                         
 ---------------------------------------------------------------------
 Center     Atomic      Atomic             Coordinates (Angstroms)
 Number     Number       Type             X           Y           Z
 ---------------------------------------------------------------------
      1          6           0        1.444318   -0.204348   -0.019415
      2          6           0        0.765822    1.117210    0.386105
      3          6           0       -0.554624    1.247190   -0.372525
      4          6           0       -1.491674    0.100196    0.042475
      5          6           0       -0.660856   -1.166479    0.319839
      6          8           0        0.510940   -1.171992   -0.469346
      7          1           0       -2.224539   -0.088476   -0.747878
      8          1           0       -2.051978    0.371835    0.944888
      9          1           0       -0.391535   -1.228794    1.386674
     10          1           0       -1.212627   -2.074544    0.065803
     11          1           0        2.124470   -0.044054   -0.861368
     12          1           0        2.029211   -0.613227    0.819485
     13          1           0        1.436138    1.957022    0.178927
     14          1           0        0.563606    1.131096    1.464389
     15          1           0       -0.353671    1.184970   -1.447680
     16          1           0       -1.024507    2.217495   -0.187349
 ---------------------------------------------------------------------
 Rotational constants (GHZ):      4.7179915      4.4737128      2.7251251
 Standard basis: 6-311++G(d,p) (5D, 7F)
 There are   202 symmetry adapted basis functions of A   symmetry.
 Integral buffers will be    131072 words long.
 Raffenetti 2 integral format.
 Two-electron integral symmetry is turned on.
   202 basis functions,   306 primitive gaussians,   208 cartesian basis functions
    24 alpha electrons       24 beta electrons
       nuclear repulsion energy       261.1534752907 Hartrees.
 NAtoms=   16 NActive=   16 NUniq=   16 SFac= 1.00D+00 NAtFMM=   50 NAOKFM=F Big=F
 One-electron integrals computed using PRISM.
 NBasis=   202 RedAO= T  NBF=   202
 NBsUse=   202 1.00D-06 NBFU=   202
 Initial guess read from the checkpoint file:  /home/hmayes/gaussian/pucker/chks/0S200.chk
 B after Tr=     0.000000    0.000000    0.000000
         Rot=    1.000000    0.000000    0.000000    0.000000 Ang=   0.00 deg.
 Initial guess orbital symmetries:
       Occupied  (A) (A) (A) (A) (A) (A) (A) (A) (A) (A) (A) (A)
                 (A) (A) (A) (A) (A) (A) (A) (A) (A) (A) (A) (A)
       Virtual   (A) (A) (A) (A) (A) (A) (A) (A) (A) (A) (A) (A)
                 (A) (A) (A) (A) (A) (A) (A) (A) (A) (A) (A) (A)
                 (A) (A) (A) (A) (A) (A) (A) (A) (A) (A) (A) (A)
                 (A) (A) (A) (A) (A) (A) (A) (A) (A) (A) (A) (A)
                 (A) (A) (A) (A) (A) (A) (A) (A) (A) (A) (A) (A)
                 (A) (A) (A) (A) (A) (A) (A) (A) (A) (A) (A) (A)
                 (A) (A) (A) (A) (A) (A) (A) (A) (A) (A) (A) (A)
                 (A) (A) (A) (A) (A) (A) (A) (A) (A) (A) (A) (A)
                 (A) (A) (A) (A) (A) (A) (A) (A) (A) (A) (A) (A)
                 (A) (A) (A) (A) (A) (A) (A) (A) (A) (A) (A) (A)
                 (A) (A) (A) (A) (A) (A) (A) (A) (A) (A) (A) (A)
                 (A) (A) (A) (A) (A) (A) (A) (A) (A) (A) (A) (A)
                 (A) (A) (A) (A) (A) (A) (A) (A) (A) (A) (A) (A)
                 (A) (A) (A) (A) (A) (A) (A) (A) (A) (A) (A) (A)
                 (A) (A) (A) (A) (A) (A) (A) (A) (A) (A)
 Requested convergence on RMS density matrix=1.00D-08 within 128 cycles.
 Requested convergence on MAX density matrix=1.00D-06.
 Requested convergence on             energy=1.00D-06.
 No special actions if energy rises.
 Keep R1 ints in memory in canonical form, NReq=241092185.
 SCF Done:  E(RM062X) =  -271.709583832     A.U. after   11 cycles
             Convg  =    0.5098D-08             -V/T =  2.0042

 **********************************************************************

            Population analysis using the SCF density.

 **********************************************************************

 Orbital symmetries:
       Occupied  (A) (A) (A) (A) (A) (A) (A) (A) (A) (A) (A) (A)
                 (A) (A) (A) (A) (A) (A) (A) (A) (A) (A) (A) (A)
       Virtual   (A) (A) (A) (A) (A) (A) (A) (A) (A) (A) (A) (A)
                 (A) (A) (A) (A) (A) (A) (A) (A) (A) (A) (A) (A)
                 (A) (A) (A) (A) (A) (A) (A) (A) (A) (A) (A) (A)
                 (A) (A) (A) (A) (A) (A) (A) (A) (A) (A) (A) (A)
                 (A) (A) (A) (A) (A) (A) (A) (A) (A) (A) (A) (A)
                 (A) (A) (A) (A) (A) (A) (A) (A) (A) (A) (A) (A)
                 (A) (A) (A) (A) (A) (A) (A) (A) (A) (A) (A) (A)
                 (A) (A) (A) (A) (A) (A) (A) (A) (A) (A) (A) (A)
                 (A) (A) (A) (A) (A) (A) (A) (A) (A) (A) (A) (A)
                 (A) (A) (A) (A) (A) (A) (A) (A) (A) (A) (A) (A)
                 (A) (A) (A) (A) (A) (A) (A) (A) (A) (A) (A) (A)
                 (A) (A) (A) (A) (A) (A) (A) (A) (A) (A) (A) (A)
                 (A) (A) (A) (A) (A) (A) (A) (A) (A) (A) (A) (A)
                 (A) (A) (A) (A) (A) (A) (A) (A) (A) (A) (A) (A)
                 (A) (A) (A) (A) (A) (A) (A) (A) (A) (A)
 The electronic state is 1-A.
 Alpha  occ. eigenvalues --  -19.61707 -10.57931 -10.57886 -10.53483 -10.53364
 Alpha  occ. eigenvalues --  -10.53190  -1.15771  -0.89652  -0.85575  -0.73663
 Alpha  occ. eigenvalues --   -0.72282  -0.61899  -0.57937  -0.56673  -0.54031
 Alpha  occ. eigenvalues --   -0.48693  -0.47832  -0.44376  -0.43681  -0.42564
 Alpha  occ. eigenvalues --   -0.40884  -0.38110  -0.35714  -0.31618
 Alpha virt. eigenvalues --   -0.00147   0.01244   0.01356   0.01800   0.03657
 Alpha virt. eigenvalues --    0.03779   0.04178   0.04487   0.05374   0.07366
 Alpha virt. eigenvalues --    0.08213   0.10160   0.10574   0.10691   0.10960
 Alpha virt. eigenvalues --    0.12037   0.13042   0.13349   0.14029   0.14421
 Alpha virt. eigenvalues --    0.14948   0.15324   0.15892   0.15953   0.16473
 Alpha virt. eigenvalues --    0.16810   0.17181   0.17609   0.18716   0.19614
 Alpha virt. eigenvalues --    0.21468   0.23058   0.24476   0.25762   0.26277
 Alpha virt. eigenvalues --    0.28373   0.29083   0.29422   0.31746   0.32128
 Alpha virt. eigenvalues --    0.33183   0.34264   0.35355   0.36601   0.36713
 Alpha virt. eigenvalues --    0.37362   0.38443   0.38671   0.40458   0.42846
 Alpha virt. eigenvalues --    0.49022   0.49718   0.50603   0.51061   0.54419
 Alpha virt. eigenvalues --    0.56707   0.57215   0.62880   0.63929   0.65013
 Alpha virt. eigenvalues --    0.67867   0.68781   0.70610   0.71153   0.71757
 Alpha virt. eigenvalues --    0.72564   0.74127   0.74543   0.76958   0.78402
 Alpha virt. eigenvalues --    0.79242   0.80100   0.80812   0.81240   0.86468
 Alpha virt. eigenvalues --    0.89387   0.96707   0.98403   1.02009   1.05221
 Alpha virt. eigenvalues --    1.13377   1.15697   1.20331   1.24547   1.27467
 Alpha virt. eigenvalues --    1.32654   1.34005   1.36824   1.40849   1.41608
 Alpha virt. eigenvalues --    1.48800   1.52478   1.54982   1.58283   1.59957
 Alpha virt. eigenvalues --    1.60983   1.61981   1.63052   1.65033   1.66936
 Alpha virt. eigenvalues --    1.70490   1.71888   1.73405   1.74706   1.76303
 Alpha virt. eigenvalues --    1.78222   1.79444   1.82063   1.82644   1.83380
 Alpha virt. eigenvalues --    1.85000   1.86375   1.87375   1.90771   1.98256
 Alpha virt. eigenvalues --    1.99218   2.02282   2.06996   2.11573   2.14903
 Alpha virt. eigenvalues --    2.15631   2.22186   2.26056   2.28445   2.28869
 Alpha virt. eigenvalues --    2.32068   2.35569   2.39964   2.44804   2.50046
 Alpha virt. eigenvalues --    2.51184   2.54246   2.56339   2.58317   2.62504
 Alpha virt. eigenvalues --    2.65081   2.69084   2.70435   2.72812   2.74712
 Alpha virt. eigenvalues --    2.75517   2.79492   2.79792   2.82452   2.88016
 Alpha virt. eigenvalues --    2.91105   2.93667   2.95856   2.96157   3.00818
 Alpha virt. eigenvalues --    3.05571   3.11180   3.15175   3.24001   3.27554
 Alpha virt. eigenvalues --    3.35884   3.39296   3.45014   3.68261   3.77160
 Alpha virt. eigenvalues --    3.87992   3.95965   4.01753   4.06670   4.11120
 Alpha virt. eigenvalues --    4.19889   4.27476   4.34026   4.38874   5.27074
 Alpha virt. eigenvalues --    5.52389   5.78102  23.90875  23.94403  23.98441
 Alpha virt. eigenvalues --   24.01041  24.02457  50.07420
          Condensed to atoms (all electrons):
              1          2          3          4          5          6
     1  C    5.809635  -0.203901  -0.120285   0.355199  -0.349799   0.208951
     2  C   -0.203901   5.803111   0.201436  -0.281814   0.065513  -0.072137
     3  C   -0.120285   0.201436   5.454983  -0.045130   0.086489   0.030877
     4  C    0.355199  -0.281814  -0.045130   5.923270  -0.167632  -0.111821
     5  C   -0.349799   0.065513   0.086489  -0.167632   5.772368   0.234462
     6  O    0.208951  -0.072137   0.030877  -0.111821   0.234462   8.086375
     7  H   -0.003298   0.038368  -0.060069   0.460389  -0.080039  -0.001119
     8  H   -0.007875  -0.009810  -0.039837   0.436533  -0.056743   0.011860
     9  H   -0.036191   0.056319  -0.003200  -0.083572   0.408857  -0.051213
    10  H    0.027076  -0.017976  -0.001954  -0.022065   0.411499  -0.071451
    11  H    0.433201  -0.020398  -0.026372  -0.005357   0.028339  -0.095162
    12  H    0.400038  -0.053552   0.017874  -0.009463  -0.021646  -0.056009
    13  H   -0.014829   0.360310  -0.031730   0.007482   0.001610   0.015342
    14  H   -0.089523   0.497281  -0.019016  -0.041664   0.013554  -0.001447
    15  H   -0.051779  -0.003940   0.521238  -0.113712  -0.004970  -0.026171
    16  H    0.000226  -0.053061   0.388228  -0.032970   0.024877   0.008833
              7          8          9         10         11         12
     1  C   -0.003298  -0.007875  -0.036191   0.027076   0.433201   0.400038
     2  C    0.038368  -0.009810   0.056319  -0.017976  -0.020398  -0.053552
     3  C   -0.060069  -0.039837  -0.003200  -0.001954  -0.026372   0.017874
     4  C    0.460389   0.436533  -0.083572  -0.022065  -0.005357  -0.009463
     5  C   -0.080039  -0.056743   0.408857   0.411499   0.028339  -0.021646
     6  O   -0.001119   0.011860  -0.051213  -0.071451  -0.095162  -0.056009
     7  H    0.530942  -0.031974   0.003968  -0.011180  -0.000492   0.000478
     8  H   -0.031974   0.536079  -0.003485   0.002858   0.001436   0.000337
     9  H    0.003968  -0.003485   0.589233  -0.024523  -0.009172   0.026554
    10  H   -0.011180   0.002858  -0.024523   0.500347   0.002635  -0.008507
    11  H   -0.000492   0.001436  -0.009172   0.002635   0.537432  -0.039401
    12  H    0.000478   0.000337   0.026554  -0.008507  -0.039401   0.593917
    13  H   -0.000831   0.000667   0.006945  -0.000591  -0.020406   0.019682
    14  H   -0.001997   0.001464  -0.031053   0.003714   0.016959  -0.036459
    15  H   -0.009650   0.004426  -0.005158   0.003341   0.013362  -0.010325
    16  H   -0.007026  -0.001703   0.004683  -0.000910  -0.006405   0.006308
             13         14         15         16
     1  C   -0.014829  -0.089523  -0.051779   0.000226
     2  C    0.360310   0.497281  -0.003940  -0.053061
     3  C   -0.031730  -0.019016   0.521238   0.388228
     4  C    0.007482  -0.041664  -0.113712  -0.032970
     5  C    0.001610   0.013554  -0.004970   0.024877
     6  O    0.015342  -0.001447  -0.026171   0.008833
     7  H   -0.000831  -0.001997  -0.009650  -0.007026
     8  H    0.000667   0.001464   0.004426  -0.001703
     9  H    0.006945  -0.031053  -0.005158   0.004683
    10  H   -0.000591   0.003714   0.003341  -0.000910
    11  H   -0.020406   0.016959   0.013362  -0.006405
    12  H    0.019682  -0.036459  -0.010325   0.006308
    13  H    0.527988  -0.034653  -0.007735   0.003155
    14  H   -0.034653   0.545076   0.015676  -0.017628
    15  H   -0.007735   0.015676   0.517498  -0.031954
    16  H    0.003155  -0.017628  -0.031954   0.539767
 Mulliken atomic charges:
              1
     1  C   -0.356847
     2  C   -0.305750
     3  C   -0.353531
     4  C   -0.267674
     5  C   -0.366740
     6  O   -0.110169
     7  H    0.173531
     8  H    0.155767
     9  H    0.151008
    10  H    0.207686
    11  H    0.189803
    12  H    0.170174
    13  H    0.167594
    14  H    0.179717
    15  H    0.189853
    16  H    0.175578
 Sum of Mulliken atomic charges =   0.00000
 Mulliken charges with hydrogens summed into heavy atoms:
              1
     1  C    0.003130
     2  C    0.041561
     3  C    0.011900
     4  C    0.061624
     5  C   -0.008046
     6  O   -0.110169
 Sum of Mulliken charges with hydrogens summed into heavy atoms =   0.00000
 Electronic spatial extent (au):  <R**2>=            536.7937
 Charge=              0.0000 electrons
 Dipole moment (field-independent basis, Debye):
    X=             -0.3775    Y=              1.2041    Z=              1.0284  Tot=              1.6279
 Quadrupole moment (field-independent basis, Debye-Ang):
   XX=            -36.8283   YY=            -40.1298   ZZ=            -38.9830
   XY=              2.0500   XZ=              0.2465   YZ=             -1.7075
 Traceless Quadrupole moment (field-independent basis, Debye-Ang):
   XX=              1.8187   YY=             -1.4828   ZZ=             -0.3359
   XY=              2.0500   XZ=              0.2465   YZ=             -1.7075
 Octapole moment (field-independent basis, Debye-Ang**2):
  XXX=              4.7463  YYY=             -1.6181  ZZZ=             -0.9972  XYY=             -3.0362
  XXY=             -1.6532  XXZ=             -1.8731  XZZ=              0.4323  YZZ=             -0.5251
  YYZ=              1.4732  XYZ=             -1.8846
 Hexadecapole moment (field-independent basis, Debye-Ang**3):
 XXXX=           -327.2029 YYYY=           -297.5090 ZZZZ=           -101.7912 XXXY=             -0.1547
 XXXZ=             -2.5611 YYYX=              6.3910 YYYZ=              0.0229 ZZZX=             -1.4783
 ZZZY=              0.1873 XXYY=           -102.4865 XXZZ=            -69.4871 YYZZ=            -70.3398
 XXYZ=              0.6624 YYXZ=              0.9748 ZZXY=             -0.6748
 N-N= 2.611534752907D+02 E-N=-1.155077050862D+03  KE= 2.705745062340D+02
 1\1\GINC-RR149\SP\RM062X\6-311++G(d,p)\C5H10O1\HMAYES\06-Jun-2012\0\\#
  m062x/6-311++G(d,p) geom=allcheck guess=read\\from http://6ring.bio.n
 rc.ca/suppl.html\\0,1\C,0,1.4436646899,-0.0530345029,0.007507241\C,0,0
 .6468930454,1.2121734041,0.3759117578\C,0,-0.6636152629,1.2166143978,-
 0.4105619071\C,0,-1.5082395124,0.0006886531,0.0065929175\C,0,-0.578724
 05,-1.1857584673,0.3228198852\O,0,0.6055946571,-1.1040082277,-0.443113
 4226\H,0,-2.205663324,-0.2626644698,-0.7944014734\H,0,-2.1084218279,0.
 2381031952,0.8928732775\H,0,-0.3275218038,-1.2075336032,1.3956565687\H
 ,0,-1.0458300204,-2.1416193737,0.0744060659\H,0,2.1252377389,0.1510632
 567,-0.8237498127\H,0,2.0434781918,-0.3968164946,0.864870904\H,0,1.247
 5685792,2.1026783436,0.1668132468\H,0,0.4216502431,1.2262380447,1.4496
 19026\H,0,-0.4355862241,1.1543421083,-1.480299109\H,0,-1.2180851199,2.
 1461337357,-0.2520451657\\Version=EM64L-G09RevB.01\State=1-A\HF=-271.7
 095838\RMSD=5.098e-09\Dipole=-0.1967166,0.465822,0.3930752\Quadrupole=
 1.0633445,-0.8655659,-0.1977786,1.7408698,0.2899181,-1.2029173\PG=C01 
 [X(C5H10O1)]\\@


 YE HAVE SOWN MUCH, AND BRING IN LITTLE.
 YE EAT, BUT YE HAVE NOT ENOUGH.
 YE DRINK, BUT YE ARE NOT FILLED WITH DRINK.
 YE CLOTHE YOU, BUT THERE IS NONE WARM.
 AND HE THAT EARNETH WAGES EARNETH WAGES TO PUT
 IT INTO A BAG WITH HOLES.
                                     HAGGAI I,6
 Job cpu time:  0 days  0 hours  4 minutes 19.5 seconds.
 File lengths (MBytes):  RWF=     21 Int=      0 D2E=      0 Chk=      3 Scr=      1
 Normal termination of Gaussian 09 at Wed Jun  6 09:29:58 2012.
