 Entering Gaussian System, Link 0=g09
 Initial command:
 /projects/nrel/apps/gaussian/g09/B.01/g09/l1.exe /scratch/hmayes/1H200/Gau-20224.inp -scrdir=/scratch/hmayes/1H200/
 Default is to use a total of   8 processors:
                                8 via shared-memory
                                1 via Linda
 Entering Link 1 = /projects/nrel/apps/gaussian/g09/B.01/g09/l1.exe PID=     20225.
  
 Copyright (c) 1988,1990,1992,1993,1995,1998,2003,2009,2010,
            Gaussian, Inc.  All Rights Reserved.
  
 This is part of the Gaussian(R) 09 program.  It is based on
 the Gaussian(R) 03 system (copyright 2003, Gaussian, Inc.),
 the Gaussian(R) 98 system (copyright 1998, Gaussian, Inc.),
 the Gaussian(R) 94 system (copyright 1995, Gaussian, Inc.),
 the Gaussian 92(TM) system (copyright 1992, Gaussian, Inc.),
 the Gaussian 90(TM) system (copyright 1990, Gaussian, Inc.),
 the Gaussian 88(TM) system (copyright 1988, Gaussian, Inc.),
 the Gaussian 86(TM) system (copyright 1986, Carnegie Mellon
 University), and the Gaussian 82(TM) system (copyright 1983,
 Carnegie Mellon University). Gaussian is a federally registered
 trademark of Gaussian, Inc.
  
 This software contains proprietary and confidential information,
 including trade secrets, belonging to Gaussian, Inc.
  
 This software is provided under written license and may be
 used, copied, transmitted, or stored only in accord with that
 written license.
  
 The following legend is applicable only to US Government
 contracts under FAR:
  
                    RESTRICTED RIGHTS LEGEND
  
 Use, reproduction and disclosure by the US Government is
 subject to restrictions as set forth in subparagraphs (a)
 and (c) of the Commercial Computer Software - Restricted
 Rights clause in FAR 52.227-19.
  
 Gaussian, Inc.
 340 Quinnipiac St., Bldg. 40, Wallingford CT 06492
  
  
 ---------------------------------------------------------------
 Warning -- This program may not be used in any manner that
 competes with the business of Gaussian, Inc. or will provide
 assistance to any competitor of Gaussian, Inc.  The licensee
 of this program is prohibited from giving any competitor of
 Gaussian, Inc. access to this program.  By using this program,
 the user acknowledges that Gaussian, Inc. is engaged in the
 business of creating and licensing software in the field of
 computational chemistry and represents and warrants to the
 licensee that it is not a competitor of Gaussian, Inc. and that
 it will not use this program in any manner prohibited above.
 ---------------------------------------------------------------
  

 Cite this work as:
 Gaussian 09, Revision B.01,
 M. J. Frisch, G. W. Trucks, H. B. Schlegel, G. E. Scuseria, 
 M. A. Robb, J. R. Cheeseman, G. Scalmani, V. Barone, B. Mennucci, 
 G. A. Petersson, H. Nakatsuji, M. Caricato, X. Li, H. P. Hratchian, 
 A. F. Izmaylov, J. Bloino, G. Zheng, J. L. Sonnenberg, M. Hada, 
 M. Ehara, K. Toyota, R. Fukuda, J. Hasegawa, M. Ishida, T. Nakajima, 
 Y. Honda, O. Kitao, H. Nakai, T. Vreven, J. A. Montgomery, Jr., 
 J. E. Peralta, F. Ogliaro, M. Bearpark, J. J. Heyd, E. Brothers, 
 K. N. Kudin, V. N. Staroverov, T. Keith, R. Kobayashi, J. Normand, 
 K. Raghavachari, A. Rendell, J. C. Burant, S. S. Iyengar, J. Tomasi, 
 M. Cossi, N. Rega, J. M. Millam, M. Klene, J. E. Knox, J. B. Cross, 
 V. Bakken, C. Adamo, J. Jaramillo, R. Gomperts, R. E. Stratmann, 
 O. Yazyev, A. J. Austin, R. Cammi, C. Pomelli, J. W. Ochterski, 
 R. L. Martin, K. Morokuma, V. G. Zakrzewski, G. A. Voth, 
 P. Salvador, J. J. Dannenberg, S. Dapprich, A. D. Daniels, 
 O. Farkas, J. B. Foresman, J. V. Ortiz, J. Cioslowski, 
 and D. J. Fox, Gaussian, Inc., Wallingford CT, 2010.
 
 ******************************************
 Gaussian 09:  EM64L-G09RevB.01 12-Aug-2010
                 6-Jun-2012 
 ******************************************
 %chk=/home/hmayes/gaussian/pucker/chks/1H200.chk
 %mem=10GB
 %nproc=8
 Will use up to    8 processors via shared memory.
 Default route:  MaxDisk=16GB
 -------------------------
 # opt freq m062x/6-31G(d)
 -------------------------
 1/14=-1,18=20,19=15,26=3,38=1/1,3;
 2/9=110,12=2,17=6,18=5,40=1/2;
 3/5=1,6=6,7=1,11=2,16=1,25=1,30=1,71=1,74=-55/1,2,3;
 4//1;
 5/5=2,38=5/2;
 6/7=2,8=2,9=2,10=2,28=1/1;
 7//1,2,3,16;
 1/14=-1,18=20,19=15/3(2);
 2/9=110/2;
 99//99;
 2/9=110/2;
 3/5=1,6=6,7=1,11=2,16=1,25=1,30=1,71=1,74=-55/1,2,3;
 4/5=5,16=3/1;
 5/5=2,38=5/2;
 7//1,2,3,16;
 1/14=-1,18=20,19=15/3(-5);
 2/9=110/2;
 6/7=2,8=2,9=2,10=2,19=2,28=1/1;
 99/9=1/99;
 ---------------------------------------
 from http://6ring.bio.nrc.ca/suppl.html
 ---------------------------------------
 Symbolic Z-matrix:
 Charge =  0 Multiplicity = 1
 C                     1.318     0.024    -0.275 
 C                     0.684     1.144     0.277 
 C                    -0.657     1.208    -0.118 
 C                    -1.373     0.007    -0.06 
 C                    -0.685    -1.206     0.06 
 O                     0.713    -1.176     0.116 
 H                    -1.9663   -0.0539   -0.9795 
 H                    -2.0439    0.0785    0.8037 
 H                    -1.0358   -1.6877    0.9798 
 H                    -0.9615   -1.822    -0.8033 
 H                     1.2778    0.0992   -1.3677 
 H                     2.364     0.0142    0.0523 
 H                     1.2003    2.0502   -0.0599 
 H                     0.7328    1.0808    1.3701 
 H                    -0.6845    1.5647   -1.154 
 H                    -1.1633    1.9316    0.5311 
 

 GradGradGradGradGradGradGradGradGradGradGradGradGradGradGradGradGradGrad
 Berny optimization.
 Initialization pass.
                           ----------------------------
                           !    Initial Parameters    !
                           ! (Angstroms and Degrees)  !
 --------------------------                            --------------------------
 ! Name  Definition              Value          Derivative Info.                !
 --------------------------------------------------------------------------------
 ! R1    R(1,2)                  1.4004         estimate D2E/DX2                !
 ! R2    R(1,6)                  1.3996         estimate D2E/DX2                !
 ! R3    R(1,11)                 1.096          estimate D2E/DX2                !
 ! R4    R(1,12)                 1.0961         estimate D2E/DX2                !
 ! R5    R(2,3)                  1.3994         estimate D2E/DX2                !
 ! R6    R(2,13)                 1.096          estimate D2E/DX2                !
 ! R7    R(2,14)                 1.096          estimate D2E/DX2                !
 ! R8    R(3,4)                  1.3994         estimate D2E/DX2                !
 ! R9    R(3,15)                 1.096          estimate D2E/DX2                !
 ! R10   R(3,16)                 1.096          estimate D2E/DX2                !
 ! R11   R(4,5)                  1.3997         estimate D2E/DX2                !
 ! R12   R(4,7)                  1.096          estimate D2E/DX2                !
 ! R13   R(4,8)                  1.096          estimate D2E/DX2                !
 ! R14   R(5,6)                  1.3994         estimate D2E/DX2                !
 ! R15   R(5,9)                  1.096          estimate D2E/DX2                !
 ! R16   R(5,10)                 1.096          estimate D2E/DX2                !
 ! A1    A(2,1,6)              112.3275         estimate D2E/DX2                !
 ! A2    A(2,1,11)             108.7539         estimate D2E/DX2                !
 ! A3    A(2,1,12)             108.7538         estimate D2E/DX2                !
 ! A4    A(6,1,11)             108.753          estimate D2E/DX2                !
 ! A5    A(6,1,12)             108.7497         estimate D2E/DX2                !
 ! A6    A(11,1,12)            109.4709         estimate D2E/DX2                !
 ! A7    A(1,2,3)              111.0479         estimate D2E/DX2                !
 ! A8    A(1,2,13)             109.0768         estimate D2E/DX2                !
 ! A9    A(1,2,14)             109.078          estimate D2E/DX2                !
 ! A10   A(3,2,13)             109.0762         estimate D2E/DX2                !
 ! A11   A(3,2,14)             109.0753         estimate D2E/DX2                !
 ! A12   A(13,2,14)            109.4674         estimate D2E/DX2                !
 ! A13   A(2,3,4)              116.0609         estimate D2E/DX2                !
 ! A14   A(2,3,15)             107.8018         estimate D2E/DX2                !
 ! A15   A(2,3,16)             107.7995         estimate D2E/DX2                !
 ! A16   A(4,3,15)             107.7965         estimate D2E/DX2                !
 ! A17   A(4,3,16)             107.8002         estimate D2E/DX2                !
 ! A18   A(15,3,16)            109.4717         estimate D2E/DX2                !
 ! A19   A(3,4,5)              119.7228         estimate D2E/DX2                !
 ! A20   A(3,4,7)              106.8509         estimate D2E/DX2                !
 ! A21   A(3,4,8)              106.8499         estimate D2E/DX2                !
 ! A22   A(5,4,7)              106.8497         estimate D2E/DX2                !
 ! A23   A(5,4,8)              106.8499         estimate D2E/DX2                !
 ! A24   A(7,4,8)              109.4754         estimate D2E/DX2                !
 ! A25   A(4,5,6)              118.417          estimate D2E/DX2                !
 ! A26   A(4,5,9)              107.1888         estimate D2E/DX2                !
 ! A27   A(4,5,10)             107.1903         estimate D2E/DX2                !
 ! A28   A(6,5,9)              107.1931         estimate D2E/DX2                !
 ! A29   A(6,5,10)             107.193          estimate D2E/DX2                !
 ! A30   A(9,5,10)             109.4688         estimate D2E/DX2                !
 ! A31   A(1,6,5)              116.0413         estimate D2E/DX2                !
 ! D1    D(6,1,2,3)            -59.9281         estimate D2E/DX2                !
 ! D2    D(6,1,2,13)           179.832          estimate D2E/DX2                !
 ! D3    D(6,1,2,14)            60.3115         estimate D2E/DX2                !
 ! D4    D(11,1,2,3)            60.5011         estimate D2E/DX2                !
 ! D5    D(11,1,2,13)          -59.7387         estimate D2E/DX2                !
 ! D6    D(11,1,2,14)         -179.2592         estimate D2E/DX2                !
 ! D7    D(12,1,2,3)           179.6469         estimate D2E/DX2                !
 ! D8    D(12,1,2,13)           59.4071         estimate D2E/DX2                !
 ! D9    D(12,1,2,14)          -60.1134         estimate D2E/DX2                !
 ! D10   D(2,1,6,5)             45.1514         estimate D2E/DX2                !
 ! D11   D(11,1,6,5)           -75.2783         estimate D2E/DX2                !
 ! D12   D(12,1,6,5)           165.5788         estimate D2E/DX2                !
 ! D13   D(1,2,3,4)             44.6747         estimate D2E/DX2                !
 ! D14   D(1,2,3,15)           -76.2808         estimate D2E/DX2                !
 ! D15   D(1,2,3,16)           165.6332         estimate D2E/DX2                !
 ! D16   D(13,2,3,4)           164.9149         estimate D2E/DX2                !
 ! D17   D(13,2,3,15)           43.9595         estimate D2E/DX2                !
 ! D18   D(13,2,3,16)          -74.1266         estimate D2E/DX2                !
 ! D19   D(14,2,3,4)           -75.5665         estimate D2E/DX2                !
 ! D20   D(14,2,3,15)          163.478          estimate D2E/DX2                !
 ! D21   D(14,2,3,16)           45.392          estimate D2E/DX2                !
 ! D22   D(2,3,4,5)            -15.2496         estimate D2E/DX2                !
 ! D23   D(2,3,4,7)           -136.6941         estimate D2E/DX2                !
 ! D24   D(2,3,4,8)            106.1944         estimate D2E/DX2                !
 ! D25   D(15,3,4,5)           105.7087         estimate D2E/DX2                !
 ! D26   D(15,3,4,7)           -15.7359         estimate D2E/DX2                !
 ! D27   D(15,3,4,8)          -132.8473         estimate D2E/DX2                !
 ! D28   D(16,3,4,5)          -136.2077         estimate D2E/DX2                !
 ! D29   D(16,3,4,7)           102.3477         estimate D2E/DX2                !
 ! D30   D(16,3,4,8)           -14.7637         estimate D2E/DX2                !
 ! D31   D(3,4,5,6)             -0.1215         estimate D2E/DX2                !
 ! D32   D(3,4,5,9)            121.1556         estimate D2E/DX2                !
 ! D33   D(3,4,5,10)          -121.3999         estimate D2E/DX2                !
 ! D34   D(7,4,5,6)            121.3236         estimate D2E/DX2                !
 ! D35   D(7,4,5,9)           -117.3992         estimate D2E/DX2                !
 ! D36   D(7,4,5,10)             0.0453         estimate D2E/DX2                !
 ! D37   D(8,4,5,6)           -121.5656         estimate D2E/DX2                !
 ! D38   D(8,4,5,9)             -0.2884         estimate D2E/DX2                !
 ! D39   D(8,4,5,10)           117.1561         estimate D2E/DX2                !
 ! D40   D(4,5,6,1)            -14.9619         estimate D2E/DX2                !
 ! D41   D(9,5,6,1)           -136.2369         estimate D2E/DX2                !
 ! D42   D(10,5,6,1)           106.3151         estimate D2E/DX2                !
 --------------------------------------------------------------------------------
 Trust Radius=3.00D-01 FncErr=1.00D-07 GrdErr=1.00D-06
 Number of steps in this run=     99 maximum allowed number of steps=    100.
 GradGradGradGradGradGradGradGradGradGradGradGradGradGradGradGradGradGrad

                          Input orientation:                          
 ---------------------------------------------------------------------
 Center     Atomic      Atomic             Coordinates (Angstroms)
 Number     Number       Type             X           Y           Z
 ---------------------------------------------------------------------
      1          6           0        1.318000    0.024000   -0.275000
      2          6           0        0.684000    1.144000    0.277000
      3          6           0       -0.657000    1.208000   -0.118000
      4          6           0       -1.373000    0.007000   -0.060000
      5          6           0       -0.685000   -1.206000    0.060000
      6          8           0        0.713000   -1.176000    0.116000
      7          1           0       -1.966300   -0.053900   -0.979500
      8          1           0       -2.043900    0.078500    0.803700
      9          1           0       -1.035800   -1.687700    0.979800
     10          1           0       -0.961500   -1.822000   -0.803300
     11          1           0        1.277800    0.099200   -1.367700
     12          1           0        2.364000    0.014200    0.052300
     13          1           0        1.200300    2.050200   -0.059900
     14          1           0        0.732800    1.080800    1.370100
     15          1           0       -0.684500    1.564700   -1.154000
     16          1           0       -1.163300    1.931600    0.531100
 ---------------------------------------------------------------------
                    Distance matrix (angstroms):
                    1          2          3          4          5
     1  C    0.000000
     2  C    1.400379   0.000000
     3  C    2.308058   1.399429   0.000000
     4  C    2.699629   2.374360   1.399436   0.000000
     5  C    2.374265   2.728324   2.420716   1.399683   0.000000
     6  O    1.399609   2.325761   2.759549   2.404550   1.399443
     7  H    3.359913   3.168256   2.012173   1.095990   2.012368
     8  H    3.531138   2.975591   2.012161   1.095991   2.012372
     9  H    3.169356   3.386763   3.119893   2.016655   1.095960
    10  H    2.980426   3.559758   3.121419   2.016697   1.095990
    11  H    1.096022   2.036969   2.556294   2.957249   2.755804
    12  H    1.096055   2.036992   3.252784   3.738694   3.284105
    13  H    2.040982   1.096023   2.040157   3.285809   3.764515
    14  H    2.040990   1.096012   2.040139   2.762721   2.992653
    15  H    2.675146   2.024239   1.096032   2.024178   3.024992
    16  H    3.231963   2.024203   1.096023   2.024218   3.208620
                    6          7          8          9         10
     6  O    0.000000
     7  H    3.104493   0.000000
     8  H    3.105994   1.789792   0.000000
     9  H    2.016504   2.715509   2.041259   0.000000
    10  H    2.016526   2.041286   2.714026   1.789693   0.000000
    11  H    2.036296   3.270829   3.968513   3.749202   3.004001
    12  H    2.036280   4.452050   4.471948   3.913484   3.893922
    13  H    3.267532   3.911554   3.893358   4.478059   4.496660
    14  H    2.581919   3.754105   3.005907   3.308304   4.002570
    15  H    3.328264   2.072035   2.808798   3.905716   3.416059
    16  H    3.653763   2.620865   2.069721   3.649236   3.988842
                   11         12         13         14         15
    11  H    0.000000
    12  H    1.789820   0.000000
    13  H    2.350053   2.347782   0.000000
    14  H    2.959073   2.352668   1.789747   0.000000
    15  H    2.458451   3.626646   2.232764   2.934958   0.000000
    16  H    3.594732   4.043206   2.439252   2.241200   1.789812
                   16
    16  H    0.000000
 Stoichiometry    C5H10O
 Framework group  C1[X(C5H10O)]
 Deg. of freedom    42
 Full point group                 C1      NOp   1
 Largest Abelian subgroup         C1      NOp   1
 Largest concise Abelian subgroup C1      NOp   1
                         Standard orientation:                         
 ---------------------------------------------------------------------
 Center     Atomic      Atomic             Coordinates (Angstroms)
 Number     Number       Type             X           Y           Z
 ---------------------------------------------------------------------
      1          6           0       -1.057286   -0.817791    0.262514
      2          6           0       -1.244189    0.454913   -0.290978
      3          6           0       -0.228216    1.330678    0.108064
      4          6           0        1.075416    0.824453    0.056091
      5          6           0        1.279945   -0.555136   -0.062290
      6          8           0        0.159703   -1.391697   -0.122811
      7          1           0        1.576514    1.141977    0.977652
      8          1           0        1.564107    1.293170   -0.805699
      9          1           0        1.856928   -0.719491   -0.979462
     10          1           0        1.873106   -0.870151    0.803805
     11          1           0       -1.076699   -0.733209    1.355095
     12          1           0       -1.874362   -1.469283   -0.068065
     13          1           0       -2.210247    0.851766    0.041447
     14          1           0       -1.238938    0.374499   -1.384024
     15          1           0       -0.430592    1.629321    1.143025
     16          1           0       -0.271455    2.212277   -0.541690
 ---------------------------------------------------------------------
 Rotational constants (GHZ):      5.0460670      4.9730803      2.8091639
 Standard basis: 6-31G(d) (6D, 7F)
 There are   110 symmetry adapted basis functions of A   symmetry.
 Integral buffers will be    131072 words long.
 Raffenetti 2 integral format.
 Two-electron integral symmetry is turned on.
   110 basis functions,   208 primitive gaussians,   110 cartesian basis functions
    24 alpha electrons       24 beta electrons
       nuclear repulsion energy       270.9223536032 Hartrees.
 NAtoms=   16 NActive=   16 NUniq=   16 SFac= 1.00D+00 NAtFMM=   50 NAOKFM=F Big=F
 One-electron integrals computed using PRISM.
 NBasis=   110 RedAO= T  NBF=   110
 NBsUse=   110 1.00D-06 NBFU=   110
 Harris functional with IExCor= 1009 diagonalized for initial guess.
 ExpMin= 1.61D-01 ExpMax= 5.48D+03 ExpMxC= 8.25D+02 IAcc=1 IRadAn=         1 AccDes= 0.00D+00
 HarFok:  IExCor= 1009 AccDes= 0.00D+00 IRadAn=         1 IDoV= 1
 ScaDFX=  1.000000  1.000000  1.000000  1.000000
 FoFCou: FMM=F IPFlag=           0 FMFlag=      100000 FMFlg1=           0
         NFxFlg=           0 DoJE=T BraDBF=F KetDBF=T FulRan=T
         Omega=  0.000000  0.000000  1.000000  0.000000  0.000000 ICntrl=     500 IOpCl=  0
         NMat0=    1 NMatS0=    1 NMatT0=    0 NMatD0=    1 NMtDS0=    0 NMtDT0=    0
         I1Cent=           4 NGrid=           0.
 Petite list used in FoFCou.
 Initial guess orbital symmetries:
       Occupied  (A) (A) (A) (A) (A) (A) (A) (A) (A) (A) (A) (A)
                 (A) (A) (A) (A) (A) (A) (A) (A) (A) (A) (A) (A)
       Virtual   (A) (A) (A) (A) (A) (A) (A) (A) (A) (A) (A) (A)
                 (A) (A) (A) (A) (A) (A) (A) (A) (A) (A) (A) (A)
                 (A) (A) (A) (A) (A) (A) (A) (A) (A) (A) (A) (A)
                 (A) (A) (A) (A) (A) (A) (A) (A) (A) (A) (A) (A)
                 (A) (A) (A) (A) (A) (A) (A) (A) (A) (A) (A) (A)
                 (A) (A) (A) (A) (A) (A) (A) (A) (A) (A) (A) (A)
                 (A) (A) (A) (A) (A) (A) (A) (A) (A) (A) (A) (A)
                 (A) (A)
 The electronic state of the initial guess is 1-A.
 Requested convergence on RMS density matrix=1.00D-08 within 128 cycles.
 Requested convergence on MAX density matrix=1.00D-06.
 Requested convergence on             energy=1.00D-06.
 No special actions if energy rises.
 Keep R1 ints in memory in canonical form, NReq=19758567.
 Integral accuracy reduced to 1.0D-05 until final iterations.
 Initial convergence to 1.0D-05 achieved.  Increase integral accuracy.
 SCF Done:  E(RM062X) =  -271.561362129     A.U. after   14 cycles
             Convg  =    0.4809D-08             -V/T =  2.0037

 **********************************************************************

            Population analysis using the SCF density.

 **********************************************************************

 Orbital symmetries:
       Occupied  (A) (A) (A) (A) (A) (A) (A) (A) (A) (A) (A) (A)
                 (A) (A) (A) (A) (A) (A) (A) (A) (A) (A) (A) (A)
       Virtual   (A) (A) (A) (A) (A) (A) (A) (A) (A) (A) (A) (A)
                 (A) (A) (A) (A) (A) (A) (A) (A) (A) (A) (A) (A)
                 (A) (A) (A) (A) (A) (A) (A) (A) (A) (A) (A) (A)
                 (A) (A) (A) (A) (A) (A) (A) (A) (A) (A) (A) (A)
                 (A) (A) (A) (A) (A) (A) (A) (A) (A) (A) (A) (A)
                 (A) (A) (A) (A) (A) (A) (A) (A) (A) (A) (A) (A)
                 (A) (A) (A) (A) (A) (A) (A) (A) (A) (A) (A) (A)
                 (A) (A)
 The electronic state is 1-A.
 Alpha  occ. eigenvalues --  -19.62142 -10.57170 -10.56954 -10.52247 -10.52020
 Alpha  occ. eigenvalues --  -10.51964  -1.15637  -0.94707  -0.89096  -0.75219
 Alpha  occ. eigenvalues --   -0.73145  -0.62367  -0.58712  -0.56095  -0.54435
 Alpha  occ. eigenvalues --   -0.51415  -0.51100  -0.45677  -0.44385  -0.41017
 Alpha  occ. eigenvalues --   -0.39571  -0.36731  -0.34424  -0.29924
 Alpha virt. eigenvalues --    0.10150   0.12608   0.16730   0.18488   0.19336
 Alpha virt. eigenvalues --    0.20214   0.22286   0.22607   0.24690   0.26290
 Alpha virt. eigenvalues --    0.28597   0.31623   0.32374   0.34436   0.38774
 Alpha virt. eigenvalues --    0.43911   0.53425   0.58967   0.59201   0.60978
 Alpha virt. eigenvalues --    0.61823   0.63664   0.66549   0.76637   0.77984
 Alpha virt. eigenvalues --    0.79936   0.80825   0.83516   0.84452   0.88719
 Alpha virt. eigenvalues --    0.90015   0.91638   0.92445   0.93059   0.94864
 Alpha virt. eigenvalues --    0.96699   0.97873   1.00455   1.02447   1.03719
 Alpha virt. eigenvalues --    1.06027   1.07694   1.21062   1.26706   1.29193
 Alpha virt. eigenvalues --    1.36531   1.41544   1.47098   1.54600   1.59546
 Alpha virt. eigenvalues --    1.60872   1.73940   1.79941   1.89376   1.91589
 Alpha virt. eigenvalues --    1.94445   2.00638   2.02546   2.06515   2.09231
 Alpha virt. eigenvalues --    2.11917   2.15767   2.17807   2.20634   2.25787
 Alpha virt. eigenvalues --    2.31292   2.33133   2.41701   2.43864   2.46181
 Alpha virt. eigenvalues --    2.50546   2.55974   2.58254   2.63592   2.74441
 Alpha virt. eigenvalues --    2.79148   2.81878   2.87539   3.03236   3.10556
 Alpha virt. eigenvalues --    4.06509   4.29413   4.32952   4.43973   4.50430
 Alpha virt. eigenvalues --    4.67304
          Condensed to atoms (all electrons):
              1          2          3          4          5          6
     1  C    4.831084   0.369961  -0.061543  -0.024825  -0.042365   0.259774
     2  C    0.369961   5.137916   0.385226  -0.062138  -0.022499  -0.051093
     3  C   -0.061543   0.385226   5.078685   0.352958  -0.051496  -0.016785
     4  C   -0.024825  -0.062138   0.352958   5.217126   0.325314  -0.035050
     5  C   -0.042365  -0.022499  -0.051496   0.325314   4.813285   0.260683
     6  O    0.259774  -0.051093  -0.016785  -0.035050   0.260683   8.268857
     7  H    0.001148   0.005949  -0.041708   0.400802  -0.045985   0.002950
     8  H   -0.000608   0.002924  -0.048521   0.397581  -0.044658   0.003231
     9  H    0.005532   0.000142   0.003984  -0.053380   0.406810  -0.044504
    10  H   -0.000972   0.000228   0.002691  -0.065094   0.400717  -0.052552
    11  H    0.371944  -0.068383  -0.014435  -0.001218   0.000012  -0.053694
    12  H    0.398560  -0.045951   0.009253  -0.000123   0.004764  -0.035928
    13  H   -0.036844   0.376685  -0.043600   0.008959   0.000258   0.004444
    14  H   -0.044414   0.376934  -0.057445  -0.001768   0.000726   0.001834
    15  H   -0.006373  -0.051572   0.397484  -0.057310   0.003876  -0.000467
    16  H    0.008552  -0.045142   0.405633  -0.049225   0.005506  -0.000200
              7          8          9         10         11         12
     1  C    0.001148  -0.000608   0.005532  -0.000972   0.371944   0.398560
     2  C    0.005949   0.002924   0.000142   0.000228  -0.068383  -0.045951
     3  C   -0.041708  -0.048521   0.003984   0.002691  -0.014435   0.009253
     4  C    0.400802   0.397581  -0.053380  -0.065094  -0.001218  -0.000123
     5  C   -0.045985  -0.044658   0.406810   0.400717   0.000012   0.004764
     6  O    0.002950   0.003231  -0.044504  -0.052552  -0.053694  -0.035928
     7  H    0.566948  -0.025639   0.006563  -0.021348  -0.000756   0.000039
     8  H   -0.025639   0.576616  -0.021463   0.007661   0.000199   0.000018
     9  H    0.006563  -0.021463   0.591204  -0.045405  -0.000762  -0.000025
    10  H   -0.021348   0.007661  -0.045405   0.632618   0.004761  -0.000290
    11  H   -0.000756   0.000199  -0.000762   0.004761   0.667247  -0.040320
    12  H    0.000039   0.000018  -0.000025  -0.000290  -0.040320   0.562106
    13  H   -0.000252  -0.000165  -0.000004   0.000067  -0.000405  -0.003346
    14  H   -0.000340   0.002160  -0.001040   0.000293   0.010129  -0.009694
    15  H   -0.020902   0.007477  -0.000383   0.000634   0.010058  -0.000213
    16  H    0.002461  -0.021149  -0.000047  -0.000330  -0.000164  -0.000305
             13         14         15         16
     1  C   -0.036844  -0.044414  -0.006373   0.008552
     2  C    0.376685   0.376934  -0.051572  -0.045142
     3  C   -0.043600  -0.057445   0.397484   0.405633
     4  C    0.008959  -0.001768  -0.057310  -0.049225
     5  C    0.000258   0.000726   0.003876   0.005506
     6  O    0.004444   0.001834  -0.000467  -0.000200
     7  H   -0.000252  -0.000340  -0.020902   0.002461
     8  H   -0.000165   0.002160   0.007477  -0.021149
     9  H   -0.000004  -0.001040  -0.000383  -0.000047
    10  H    0.000067   0.000293   0.000634  -0.000330
    11  H   -0.000405   0.010129   0.010058  -0.000164
    12  H   -0.003346  -0.009694  -0.000213  -0.000305
    13  H    0.574151  -0.021927  -0.011041  -0.004215
    14  H   -0.021927   0.595209   0.008821  -0.010073
    15  H   -0.011041   0.008821   0.597345  -0.024403
    16  H   -0.004215  -0.010073  -0.024403   0.571402
 Mulliken atomic charges:
              1
     1  C   -0.028611
     2  C   -0.309186
     3  C   -0.300380
     4  C   -0.352610
     5  C   -0.014949
     6  O   -0.511501
     7  H    0.170070
     8  H    0.164337
     9  H    0.152776
    10  H    0.136322
    11  H    0.115786
    12  H    0.161453
    13  H    0.157234
    14  H    0.150595
    15  H    0.146968
    16  H    0.161697
 Sum of Mulliken atomic charges =   0.00000
 Mulliken charges with hydrogens summed into heavy atoms:
              1
     1  C    0.248628
     2  C   -0.001358
     3  C    0.008285
     4  C   -0.018204
     5  C    0.274149
     6  O   -0.511501
 Sum of Mulliken charges with hydrogens summed into heavy atoms =   0.00000
 Electronic spatial extent (au):  <R**2>=            510.0985
 Charge=              0.0000 electrons
 Dipole moment (field-independent basis, Debye):
    X=             -0.1780    Y=              1.7155    Z=              0.2035  Tot=              1.7366
 Quadrupole moment (field-independent basis, Debye-Ang):
   XX=            -35.8856   YY=            -41.9853   ZZ=            -37.0977
   XY=              0.9233   XZ=             -0.2595   YZ=             -0.5902
 Traceless Quadrupole moment (field-independent basis, Debye-Ang):
   XX=              2.4373   YY=             -3.6624   ZZ=              1.2252
   XY=              0.9233   XZ=             -0.2595   YZ=             -0.5902
 Octapole moment (field-independent basis, Debye-Ang**2):
  XXX=             -0.6228  YYY=              0.3257  ZZZ=             -0.7266  XYY=             -1.7585
  XXY=             -3.8728  XXZ=             -0.2723  XZZ=              1.9082  YZZ=             -0.4376
  YYZ=             -0.6102  XYZ=             -0.4698
 Hexadecapole moment (field-independent basis, Debye-Ang**3):
 XXXX=           -307.8362 YYYY=           -295.5274 ZZZZ=            -79.8004 XXXY=             -0.2398
 XXXZ=             -1.8355 YYYX=              2.9407 YYYZ=             -2.5855 ZZZX=              0.0412
 ZZZY=              0.9524 XXYY=            -97.3644 XXZZ=            -63.5395 YYZZ=            -59.7236
 XXYZ=              1.8380 YYXZ=              0.2411 ZZXY=              0.2053
 N-N= 2.709223536032D+02 E-N=-1.174053920803D+03  KE= 2.705641196851D+02
 Calling FoFJK, ICntrl=      2127 FMM=F ISym2X=0 I1Cent= 0 IOpClX= 0 NMat=1 NMatS=1 NMatT=0.
 ***** Axes restored to original set *****
 -------------------------------------------------------------------
 Center     Atomic                   Forces (Hartrees/Bohr)
 Number     Number              X              Y              Z
 -------------------------------------------------------------------
      1        6           0.042938815   -0.054344696   -0.032483870
      2        6           0.044820465    0.060743726    0.057355994
      3        6          -0.036300841    0.097595282   -0.029767651
      4        6          -0.106175005    0.003933869    0.000148222
      5        6           0.035104513   -0.090010155    0.001749333
      6        8           0.018068508   -0.007950067    0.014634219
      7        1          -0.012001563    0.001657072    0.008714207
      8        1          -0.009240551   -0.001446888   -0.006341468
      9        1           0.006317099   -0.011332062   -0.003874432
     10        1           0.002030847   -0.011667407    0.003260166
     11        1           0.005735613    0.000027336   -0.008582376
     12        1           0.000721369   -0.010266976   -0.004797517
     13        1           0.003581874    0.002047759    0.007400705
     14        1           0.006485332    0.002113261    0.004012234
     15        1          -0.000100910    0.009492320   -0.000258993
     16        1          -0.001985565    0.009407625   -0.011168772
 -------------------------------------------------------------------
 Cartesian Forces:  Max     0.106175005 RMS     0.032002921

 GradGradGradGradGradGradGradGradGradGradGradGradGradGradGradGradGradGrad
 Berny optimization.
 Internal  Forces:  Max     0.127545689 RMS     0.024749220
 Search for a local minimum.
 Step number   1 out of a maximum of   99
 All quantities printed in internal units (Hartrees-Bohrs-Radians)
 Mixed Optimization -- RFO/linear search
 Second derivative matrix not updated -- first step.
 ITU=  0
     Eigenvalues ---    0.01953   0.02112   0.02324   0.03751   0.03962
     Eigenvalues ---    0.04805   0.05334   0.05899   0.06086   0.06248
     Eigenvalues ---    0.06626   0.07139   0.07331   0.08714   0.08856
     Eigenvalues ---    0.09574   0.10104   0.10663   0.11689   0.11985
     Eigenvalues ---    0.12299   0.12918   0.13783   0.19353   0.19591
     Eigenvalues ---    0.22524   0.34122   0.34125   0.34126   0.34126
     Eigenvalues ---    0.34126   0.34127   0.34129   0.34129   0.34129
     Eigenvalues ---    0.34133   0.40941   0.41868   0.44076   0.45664
     Eigenvalues ---    0.45704   0.45708
 RFO step:  Lambda=-1.03039336D-01 EMin= 1.95336059D-02
 Linear search not attempted -- first point.
 Maximum step size (   0.300) exceeded in Quadratic search.
    -- Step size scaled by   0.683
 Iteration  1 RMS(Cart)=  0.05878810 RMS(Int)=  0.00064123
 Iteration  2 RMS(Cart)=  0.00072065 RMS(Int)=  0.00024366
 Iteration  3 RMS(Cart)=  0.00000036 RMS(Int)=  0.00024366
 Variable       Old X    -DE/DX   Delta X   Delta X   Delta X     New X
                                 (Linear)    (Quad)   (Total)
    R1        2.64633   0.09503   0.00000   0.11569   0.11558   2.76192
    R2        2.64488   0.01724   0.00000   0.01576   0.01530   2.66018
    R3        2.07118   0.00835   0.00000   0.01284   0.01284   2.08402
    R4        2.07124  -0.00066   0.00000  -0.00101  -0.00101   2.07024
    R5        2.64454   0.10353   0.00000   0.12848   0.12871   2.77325
    R6        2.07118   0.00111   0.00000   0.00171   0.00171   2.07289
    R7        2.07116   0.00416   0.00000   0.00639   0.00639   2.07756
    R8        2.64455   0.11955   0.00000   0.15076   0.15121   2.79576
    R9        2.07120   0.00335   0.00000   0.00515   0.00515   2.07635
   R10        2.07118   0.00050   0.00000   0.00078   0.00078   2.07196
   R11        2.64502   0.12755   0.00000   0.15753   0.15768   2.80270
   R12        2.07112  -0.00091   0.00000  -0.00140  -0.00140   2.06972
   R13        2.07112   0.00057   0.00000   0.00088   0.00088   2.07200
   R14        2.64456   0.02519   0.00000   0.02753   0.02722   2.67178
   R15        2.07106  -0.00028   0.00000  -0.00042  -0.00042   2.07064
   R16        2.07112   0.00346   0.00000   0.00533   0.00533   2.07645
    A1        1.96048   0.00537   0.00000   0.00516   0.00480   1.96529
    A2        1.89811   0.00260   0.00000   0.01064   0.01055   1.90866
    A3        1.89811   0.00709   0.00000   0.02502   0.02516   1.92327
    A4        1.89810   0.00056   0.00000   0.00496   0.00485   1.90294
    A5        1.89804  -0.01105   0.00000  -0.02939  -0.02922   1.86882
    A6        1.91063  -0.00484   0.00000  -0.01713  -0.01738   1.89325
    A7        1.93815   0.00145   0.00000   0.00196   0.00204   1.94019
    A8        1.90375   0.00154   0.00000   0.00123   0.00102   1.90477
    A9        1.90377  -0.00390   0.00000  -0.00686  -0.00677   1.89700
   A10        1.90374   0.00063   0.00000   0.00683   0.00689   1.91063
   A11        1.90372   0.00366   0.00000   0.01126   0.01115   1.91488
   A12        1.91057  -0.00347   0.00000  -0.01476  -0.01479   1.89577
   A13        2.02565  -0.01966   0.00000  -0.02794  -0.02712   1.99853
   A14        1.88150   0.00563   0.00000   0.00350   0.00339   1.88488
   A15        1.88146   0.00494   0.00000   0.01057   0.01058   1.89204
   A16        1.88140   0.00786   0.00000   0.02009   0.02000   1.90140
   A17        1.88147   0.00979   0.00000   0.01832   0.01802   1.89949
   A18        1.91064  -0.00882   0.00000  -0.02614  -0.02616   1.88448
   A19        2.08956  -0.01786   0.00000  -0.02358  -0.02278   2.06677
   A20        1.86490   0.00724   0.00000   0.01168   0.01156   1.87646
   A21        1.86488   0.00618   0.00000   0.01377   0.01365   1.87853
   A22        1.86488   0.00509   0.00000   0.01138   0.01130   1.87618
   A23        1.86488   0.00813   0.00000   0.01338   0.01321   1.87809
   A24        1.91071  -0.00936   0.00000  -0.02991  -0.02985   1.88085
   A25        2.06677   0.00424   0.00000   0.00697   0.00676   2.07353
   A26        1.87080   0.01000   0.00000   0.02993   0.02984   1.90064
   A27        1.87082   0.00844   0.00000   0.02891   0.02885   1.89967
   A28        1.87087  -0.00871   0.00000  -0.02642  -0.02651   1.84437
   A29        1.87087  -0.00684   0.00000  -0.01479  -0.01501   1.85586
   A30        1.91059  -0.00833   0.00000  -0.02842  -0.02912   1.88147
   A31        2.02530   0.02577   0.00000   0.03013   0.02895   2.05426
    D1       -1.04594  -0.00471   0.00000  -0.01282  -0.01264  -1.05858
    D2        3.13866  -0.00739   0.00000  -0.02331  -0.02315   3.11551
    D3        1.05263  -0.00179   0.00000  -0.00206  -0.00193   1.05071
    D4        1.05594   0.00115   0.00000   0.00386   0.00387   1.05981
    D5       -1.04264  -0.00153   0.00000  -0.00663  -0.00665  -1.04929
    D6       -3.12866   0.00408   0.00000   0.01462   0.01458  -3.11409
    D7        3.13543   0.00093   0.00000   0.00386   0.00396   3.13939
    D8        1.03685  -0.00175   0.00000  -0.00663  -0.00656   1.03029
    D9       -1.04918   0.00385   0.00000   0.01461   0.01467  -1.03451
   D10        0.78804   0.00411   0.00000   0.01365   0.01353   0.80157
   D11       -1.31385  -0.00293   0.00000  -0.00632  -0.00622  -1.32007
   D12        2.88989   0.00896   0.00000   0.02842   0.02823   2.91812
   D13        0.77972  -0.00291   0.00000  -0.00074  -0.00044   0.77928
   D14       -1.33135  -0.00429   0.00000  -0.01083  -0.01076  -1.34211
   D15        2.89085   0.00045   0.00000   0.01245   0.01265   2.90349
   D16        2.87831   0.00032   0.00000   0.00643   0.00662   2.88493
   D17        0.76724  -0.00106   0.00000  -0.00366  -0.00370   0.76354
   D18       -1.29375   0.00367   0.00000   0.01962   0.01971  -1.27404
   D19       -1.31888  -0.00134   0.00000  -0.00075  -0.00057  -1.31946
   D20        2.85323  -0.00272   0.00000  -0.01084  -0.01090   2.84233
   D21        0.79224   0.00201   0.00000   0.01244   0.01251   0.80475
   D22       -0.26616  -0.00359   0.00000  -0.00771  -0.00761  -0.27376
   D23       -2.38576  -0.00408   0.00000  -0.01646  -0.01647  -2.40223
   D24        1.85344   0.00010   0.00000   0.00551   0.00556   1.85900
   D25        1.84497  -0.00341   0.00000  -0.00650  -0.00642   1.83855
   D26       -0.27464  -0.00389   0.00000  -0.01524  -0.01528  -0.28992
   D27       -2.31862   0.00028   0.00000   0.00673   0.00675  -2.31188
   D28       -2.37727  -0.00435   0.00000  -0.01675  -0.01662  -2.39389
   D29        1.78631  -0.00483   0.00000  -0.02550  -0.02548   1.76083
   D30       -0.25768  -0.00066   0.00000  -0.00353  -0.00345  -0.26113
   D31       -0.00212   0.00029   0.00000   0.00707   0.00706   0.00494
   D32        2.11456  -0.00016   0.00000   0.00131   0.00116   2.11573
   D33       -2.11883  -0.00046   0.00000  -0.00180  -0.00181  -2.12064
   D34        2.11750   0.00185   0.00000   0.01597   0.01605   2.13355
   D35       -2.04900   0.00140   0.00000   0.01020   0.01015  -2.03885
   D36        0.00079   0.00109   0.00000   0.00709   0.00718   0.00797
   D37       -2.12172  -0.00243   0.00000  -0.00635  -0.00633  -2.12805
   D38       -0.00503  -0.00288   0.00000  -0.01212  -0.01223  -0.01726
   D39        2.04476  -0.00319   0.00000  -0.01523  -0.01520   2.02956
   D40       -0.26113  -0.00110   0.00000  -0.01037  -0.01051  -0.27164
   D41       -2.37778  -0.01018   0.00000  -0.03331  -0.03295  -2.41073
   D42        1.85555   0.00744   0.00000   0.02076   0.02026   1.87581
         Item               Value     Threshold  Converged?
 Maximum Force            0.127546     0.000450     NO 
 RMS     Force            0.024749     0.000300     NO 
 Maximum Displacement     0.172274     0.001800     NO 
 RMS     Displacement     0.058669     0.001200     NO 
 Predicted change in Energy=-5.133485D-02
 GradGradGradGradGradGradGradGradGradGradGradGradGradGradGradGradGradGrad

                          Input orientation:                          
 ---------------------------------------------------------------------
 Center     Atomic      Atomic             Coordinates (Angstroms)
 Number     Number       Type             X           Y           Z
 ---------------------------------------------------------------------
      1          6           0        1.352160    0.003536   -0.281623
      2          6           0        0.709975    1.183952    0.293116
      3          6           0       -0.692323    1.282269   -0.128269
      4          6           0       -1.443782    0.009607   -0.061733
      5          6           0       -0.679690   -1.255675    0.060288
      6          8           0        0.731888   -1.196543    0.114234
      7          1           0       -2.054241   -0.060483   -0.968374
      8          1           0       -2.124244    0.070150    0.795893
      9          1           0       -0.989652   -1.770498    0.976539
     10          1           0       -0.929497   -1.904580   -0.790535
     11          1           0        1.329293    0.074219   -1.381933
     12          1           0        2.397579   -0.053057    0.040967
     13          1           0        1.252403    2.081222   -0.029259
     14          1           0        0.763989    1.115928    1.389074
     15          1           0       -0.710851    1.653789   -1.162143
     16          1           0       -1.193407    2.022764    0.506357
 ---------------------------------------------------------------------
                    Distance matrix (angstroms):
                    1          2          3          4          5
     1  C    0.000000
     2  C    1.461543   0.000000
     3  C    2.416316   1.467539   0.000000
     4  C    2.804582   2.478644   1.479454   0.000000
     5  C    2.414732   2.817296   2.544970   1.483126   0.000000
     6  O    1.407704   2.387308   2.869093   2.493853   1.413846
     7  H    3.475528   3.283424   2.088919   1.095250   2.091894
     8  H    3.640174   3.086445   2.091340   1.096456   2.094198
     9  H    3.195975   3.476288   3.260121   2.110218   1.095735
    10  H    3.017591   3.660765   3.263564   2.111813   1.098809
    11  H    1.102815   2.102582   2.667956   3.071978   2.807959
    12  H    1.095522   2.107552   3.370346   3.843244   3.303974
    13  H    2.095332   1.096925   2.104777   3.400302   3.856926
    14  H    2.091552   1.099395   2.109702   2.864095   3.078049
    15  H    2.784720   2.087408   1.098757   2.109840   3.155993
    16  H    3.343368   2.090919   1.096434   2.106707   3.348289
                    6          7          8          9         10
     6  O    0.000000
     7  H    3.197686   0.000000
     8  H    3.197916   1.770481   0.000000
     9  H    2.009153   2.800034   2.169774   0.000000
    10  H    2.019932   2.167342   2.800666   1.773174   0.000000
    11  H    2.051888   3.411375   4.082874   3.787200   3.060642
    12  H    2.021745   4.564814   4.586063   3.911295   3.897302
    13  H    3.321938   4.050029   4.015847   4.568828   4.607260
    14  H    2.640790   3.857970   3.128484   3.402485   4.091706
    15  H    3.440208   2.186543   2.887819   4.046905   3.584395
    16  H    3.771533   2.693656   2.182427   3.827718   4.144346
                   11         12         13         14         15
    11  H    0.000000
    12  H    1.783838   0.000000
    13  H    2.421508   2.423119   0.000000
    14  H    3.013836   2.419201   1.783818   0.000000
    15  H    2.589505   3.744748   2.306619   2.995523   0.000000
    16  H    3.704927   4.173823   2.504454   2.330867   1.775640
                   16
    16  H    0.000000
 Stoichiometry    C5H10O
 Framework group  C1[X(C5H10O)]
 Deg. of freedom    42
 Full point group                 C1      NOp   1
 Largest Abelian subgroup         C1      NOp   1
 Largest concise Abelian subgroup C1      NOp   1
                         Standard orientation:                         
 ---------------------------------------------------------------------
 Center     Atomic      Atomic             Coordinates (Angstroms)
 Number     Number       Type             X           Y           Z
 ---------------------------------------------------------------------
      1          6           0       -1.007547   -0.930394    0.273563
      2          6           0       -1.320125    0.375596   -0.303320
      3          6           0       -0.344378    1.387872    0.117257
      4          6           0        1.065811    0.945221    0.052360
      5          6           0        1.345109   -0.506444   -0.067327
      6          8           0        0.256824   -1.407414   -0.120708
      7          1           0        1.565636    1.303087    0.958825
      8          1           0        1.531443    1.444398   -0.805676
      9          1           0        1.920630   -0.682816   -0.982917
     10          1           0        1.964446   -0.820094    0.784392
     11          1           0       -1.038639   -0.860953    1.373750
     12          1           0       -1.746144   -1.672654   -0.048452
     13          1           0       -2.323928    0.679636    0.017904
     14          1           0       -1.313957    0.287289   -1.399145
     15          1           0       -0.580008    1.677821    1.150541
     16          1           0       -0.467290    2.272488   -0.518759
 ---------------------------------------------------------------------
 Rotational constants (GHZ):      4.7699489      4.6267248      2.6198173
 Standard basis: 6-31G(d) (6D, 7F)
 There are   110 symmetry adapted basis functions of A   symmetry.
 Integral buffers will be    131072 words long.
 Raffenetti 2 integral format.
 Two-electron integral symmetry is turned on.
   110 basis functions,   208 primitive gaussians,   110 cartesian basis functions
    24 alpha electrons       24 beta electrons
       nuclear repulsion energy       263.1017612004 Hartrees.
 NAtoms=   16 NActive=   16 NUniq=   16 SFac= 1.00D+00 NAtFMM=   50 NAOKFM=F Big=F
 One-electron integrals computed using PRISM.
 NBasis=   110 RedAO= T  NBF=   110
 NBsUse=   110 1.00D-06 NBFU=   110
 Initial guess read from the read-write file.
 B after Tr=     0.000000    0.000000    0.000000
         Rot=    1.000000    0.000000    0.000000    0.000000 Ang=   0.00 deg.
 Initial guess orbital symmetries:
       Occupied  (A) (A) (A) (A) (A) (A) (A) (A) (A) (A) (A) (A)
                 (A) (A) (A) (A) (A) (A) (A) (A) (A) (A) (A) (A)
       Virtual   (A) (A) (A) (A) (A) (A) (A) (A) (A) (A) (A) (A)
                 (A) (A) (A) (A) (A) (A) (A) (A) (A) (A) (A) (A)
                 (A) (A) (A) (A) (A) (A) (A) (A) (A) (A) (A) (A)
                 (A) (A) (A) (A) (A) (A) (A) (A) (A) (A) (A) (A)
                 (A) (A) (A) (A) (A) (A) (A) (A) (A) (A) (A) (A)
                 (A) (A) (A) (A) (A) (A) (A) (A) (A) (A) (A) (A)
                 (A) (A) (A) (A) (A) (A) (A) (A) (A) (A) (A) (A)
                 (A) (A)
 Harris functional with IExCor= 1009 diagonalized for initial guess.
 ExpMin= 1.61D-01 ExpMax= 5.48D+03 ExpMxC= 8.25D+02 IAcc=1 IRadAn=         1 AccDes= 0.00D+00
 HarFok:  IExCor= 1009 AccDes= 0.00D+00 IRadAn=         1 IDoV= 1
 ScaDFX=  1.000000  1.000000  1.000000  1.000000
 FoFCou: FMM=F IPFlag=           0 FMFlag=      100000 FMFlg1=           0
         NFxFlg=           0 DoJE=T BraDBF=F KetDBF=T FulRan=T
         Omega=  0.000000  0.000000  1.000000  0.000000  0.000000 ICntrl=     500 IOpCl=  0
         NMat0=    1 NMatS0=    1 NMatT0=    0 NMatD0=    1 NMtDS0=    0 NMtDT0=    0
         I1Cent=           4 NGrid=           0.
 Petite list used in FoFCou.
 Requested convergence on RMS density matrix=1.00D-08 within 128 cycles.
 Requested convergence on MAX density matrix=1.00D-06.
 Requested convergence on             energy=1.00D-06.
 No special actions if energy rises.
 Keep R1 ints in memory in canonical form, NReq=19758713.
 Integral accuracy reduced to 1.0D-05 until final iterations.
 Initial convergence to 1.0D-05 achieved.  Increase integral accuracy.
 SCF Done:  E(RM062X) =  -271.608507067     A.U. after   14 cycles
             Convg  =    0.4038D-08             -V/T =  2.0068
 Calling FoFJK, ICntrl=      2127 FMM=F ISym2X=0 I1Cent= 0 IOpClX= 0 NMat=1 NMatS=1 NMatT=0.
 ***** Axes restored to original set *****
 -------------------------------------------------------------------
 Center     Atomic                   Forces (Hartrees/Bohr)
 Number     Number              X              Y              Z
 -------------------------------------------------------------------
      1        6           0.013056293   -0.024654044   -0.018536030
      2        6           0.018208249    0.023939923    0.026369328
      3        6          -0.013607502    0.036685395   -0.013507178
      4        6          -0.039564549    0.001096697    0.002024486
      5        6           0.016378971   -0.034189973   -0.003814338
      6        8           0.008389455    0.000534147    0.011960224
      7        1          -0.005611708    0.000412704    0.005066532
      8        1          -0.003162942   -0.001618101   -0.003725412
      9        1           0.001794910   -0.003541466   -0.002206436
     10        1          -0.000963457   -0.002935075    0.001789316
     11        1           0.002917348    0.001252636   -0.002596949
     12        1          -0.000691161   -0.004757077   -0.002168313
     13        1           0.001301110    0.000477611    0.004517556
     14        1           0.003080185    0.001054872   -0.000062961
     15        1          -0.000323309    0.002815215    0.001505561
     16        1          -0.001201894    0.003426535   -0.006615387
 -------------------------------------------------------------------
 Cartesian Forces:  Max     0.039564549 RMS     0.012856149

 GradGradGradGradGradGradGradGradGradGradGradGradGradGradGradGradGradGrad
 Berny optimization.
 Using GEDIIS/GDIIS optimizer.
 Internal  Forces:  Max     0.045632105 RMS     0.009284885
 Search for a local minimum.
 Step number   2 out of a maximum of   99
 All quantities printed in internal units (Hartrees-Bohrs-Radians)
 Mixed Optimization -- RFO/linear search
 Update second derivatives using D2CorX and points    1    2
 DE= -4.71D-02 DEPred=-5.13D-02 R= 9.18D-01
 SS=  1.41D+00  RLast= 3.12D-01 DXNew= 5.0454D-01 9.3599D-01
 Trust test= 9.18D-01 RLast= 3.12D-01 DXMaxT set to 5.05D-01
 ITU=  1  0
 Use linear search instead of GDIIS.
     Eigenvalues ---    0.01950   0.02115   0.02325   0.03751   0.03936
     Eigenvalues ---    0.04836   0.05252   0.05874   0.06077   0.06251
     Eigenvalues ---    0.06650   0.06976   0.07235   0.08673   0.08908
     Eigenvalues ---    0.09417   0.09973   0.10630   0.11856   0.12026
     Eigenvalues ---    0.12768   0.12873   0.13824   0.19234   0.19562
     Eigenvalues ---    0.22449   0.34088   0.34123   0.34125   0.34126
     Eigenvalues ---    0.34126   0.34128   0.34129   0.34129   0.34133
     Eigenvalues ---    0.34153   0.41032   0.42431   0.44161   0.45617
     Eigenvalues ---    0.45700   0.50311
 RFO step:  Lambda=-5.29761716D-03 EMin= 1.94980964D-02
 Quartic linear search produced a step of  0.85576.
 Iteration  1 RMS(Cart)=  0.05778488 RMS(Int)=  0.00136420
 Iteration  2 RMS(Cart)=  0.00158791 RMS(Int)=  0.00061074
 Iteration  3 RMS(Cart)=  0.00000097 RMS(Int)=  0.00061074
 Variable       Old X    -DE/DX   Delta X   Delta X   Delta X     New X
                                 (Linear)    (Quad)   (Total)
    R1        2.76192   0.03739   0.09891   0.00269   0.10127   2.86318
    R2        2.66018   0.00419   0.01309  -0.01097   0.00122   2.66139
    R3        2.08402   0.00261   0.01098  -0.00241   0.00857   2.09259
    R4        2.07024  -0.00105  -0.00086  -0.00433  -0.00520   2.06504
    R5        2.77325   0.04060   0.11014   0.00241   0.11291   2.88616
    R6        2.07289  -0.00029   0.00146  -0.00370  -0.00224   2.07064
    R7        2.07756   0.00001   0.00547  -0.00809  -0.00262   2.07494
    R8        2.79576   0.04425   0.12940  -0.00714   0.12317   2.91893
    R9        2.07635  -0.00045   0.00441  -0.00900  -0.00459   2.07176
   R10        2.07196  -0.00097   0.00066  -0.00617  -0.00551   2.06645
   R11        2.80270   0.04563   0.13494  -0.01444   0.12088   2.92359
   R12        2.06972  -0.00110  -0.00120  -0.00407  -0.00527   2.06445
   R13        2.07200  -0.00104   0.00075  -0.00668  -0.00593   2.06607
   R14        2.67178   0.00889   0.02329  -0.00392   0.01885   2.69063
   R15        2.07064  -0.00068  -0.00036  -0.00310  -0.00346   2.06718
   R16        2.07645   0.00056   0.00456  -0.00382   0.00073   2.07718
    A1        1.96529   0.00154   0.00411  -0.01882  -0.01646   1.94883
    A2        1.90866   0.00086   0.00902   0.01370   0.02238   1.93104
    A3        1.92327   0.00279   0.02153   0.01086   0.03215   1.95542
    A4        1.90294   0.00177   0.00415   0.04570   0.04970   1.95264
    A5        1.86882  -0.00509  -0.02501  -0.03759  -0.06140   1.80742
    A6        1.89325  -0.00211  -0.01487  -0.01441  -0.02950   1.86375
    A7        1.94019  -0.00116   0.00174  -0.02839  -0.02674   1.91345
    A8        1.90477   0.00100   0.00088   0.00876   0.00961   1.91438
    A9        1.89700  -0.00085  -0.00579   0.00666   0.00140   1.89840
   A10        1.91063   0.00088   0.00590   0.01470   0.02108   1.93170
   A11        1.91488   0.00223   0.00954   0.02703   0.03620   1.95108
   A12        1.89577  -0.00216  -0.01266  -0.02914  -0.04210   1.85367
   A13        1.99853  -0.00692  -0.02321  -0.00048  -0.02335   1.97517
   A14        1.88488   0.00258   0.00290   0.00099   0.00417   1.88906
   A15        1.89204   0.00233   0.00906   0.02328   0.03243   1.92446
   A16        1.90140   0.00282   0.01712   0.00377   0.02106   1.92246
   A17        1.89949   0.00301   0.01542   0.00610   0.02133   1.92082
   A18        1.88448  -0.00382  -0.02239  -0.03638  -0.05874   1.82573
   A19        2.06677  -0.00620  -0.01950  -0.00156  -0.02044   2.04633
   A20        1.87646   0.00321   0.00989   0.00872   0.01880   1.89526
   A21        1.87853   0.00274   0.01168   0.02689   0.03834   1.91687
   A22        1.87618   0.00149   0.00967   0.00499   0.01461   1.89079
   A23        1.87809   0.00275   0.01130   0.00127   0.01257   1.89066
   A24        1.88085  -0.00416  -0.02555  -0.04639  -0.07184   1.80902
   A25        2.07353   0.00212   0.00579  -0.00427  -0.00014   2.07339
   A26        1.90064   0.00247   0.02553  -0.00990   0.01579   1.91643
   A27        1.89967   0.00151   0.02469   0.00369   0.02802   1.92770
   A28        1.84437  -0.00285  -0.02268  -0.01445  -0.03657   1.80780
   A29        1.85586  -0.00106  -0.01284   0.04161   0.02816   1.88402
   A30        1.88147  -0.00286  -0.02492  -0.01848  -0.04395   1.83752
   A31        2.05426   0.00864   0.02478  -0.01852   0.00219   2.05644
    D1       -1.05858  -0.00302  -0.01081  -0.06172  -0.07177  -1.13035
    D2        3.11551  -0.00404  -0.01981  -0.06777  -0.08715   3.02836
    D3        1.05071  -0.00153  -0.00165  -0.04157  -0.04284   1.00787
    D4        1.05981   0.00086   0.00331  -0.00653  -0.00304   1.05677
    D5       -1.04929  -0.00016  -0.00569  -0.01259  -0.01842  -1.06771
    D6       -3.11409   0.00235   0.01247   0.01362   0.02590  -3.08819
    D7        3.13939   0.00050   0.00339  -0.00916  -0.00502   3.13437
    D8        1.03029  -0.00052  -0.00561  -0.01521  -0.02040   1.00990
    D9       -1.03451   0.00199   0.01255   0.01100   0.02392  -1.01059
   D10        0.80157   0.00337   0.01157   0.10269   0.11370   0.91527
   D11       -1.32007   0.00002  -0.00532   0.06572   0.06024  -1.25984
   D12        2.91812   0.00436   0.02415   0.07936   0.10435   3.02247
   D13        0.77928  -0.00029  -0.00037   0.02802   0.02803   0.80731
   D14       -1.34211  -0.00123  -0.00921   0.02277   0.01354  -1.32857
   D15        2.90349   0.00066   0.01082   0.05281   0.06371   2.96720
   D16        2.88493   0.00080   0.00567   0.03047   0.03643   2.92137
   D17        0.76354  -0.00014  -0.00316   0.02523   0.02194   0.78549
   D18       -1.27404   0.00175   0.01687   0.05527   0.07212  -1.20193
   D19       -1.31946   0.00004  -0.00049   0.02012   0.02019  -1.29927
   D20        2.84233  -0.00089  -0.00932   0.01488   0.00570   2.84803
   D21        0.80475   0.00100   0.01070   0.04492   0.05587   0.86062
   D22       -0.27376  -0.00202  -0.00651  -0.03456  -0.04120  -0.31496
   D23       -2.40223  -0.00229  -0.01409  -0.04742  -0.06171  -2.46394
   D24        1.85900  -0.00046   0.00476  -0.01139  -0.00678   1.85222
   D25        1.83855  -0.00128  -0.00549  -0.03082  -0.03635   1.80219
   D26       -0.28992  -0.00155  -0.01308  -0.04368  -0.05686  -0.34678
   D27       -2.31188   0.00028   0.00577  -0.00765  -0.00193  -2.31381
   D28       -2.39389  -0.00257  -0.01422  -0.06884  -0.08296  -2.47685
   D29        1.76083  -0.00285  -0.02180  -0.08170  -0.10347   1.65736
   D30       -0.26113  -0.00101  -0.00295  -0.04567  -0.04854  -0.30967
   D31        0.00494   0.00046   0.00604   0.06517   0.07098   0.07592
   D32        2.11573   0.00023   0.00099   0.03412   0.03471   2.15044
   D33       -2.12064  -0.00096  -0.00155   0.00853   0.00677  -2.11386
   D34        2.13355   0.00160   0.01374   0.07992   0.09363   2.22718
   D35       -2.03885   0.00138   0.00869   0.04886   0.05736  -1.98149
   D36        0.00797   0.00018   0.00615   0.02328   0.02943   0.03740
   D37       -2.12805  -0.00110  -0.00541   0.02909   0.02361  -2.10443
   D38       -0.01726  -0.00132  -0.01046  -0.00197  -0.01266  -0.02992
   D39        2.02956  -0.00252  -0.01300  -0.02755  -0.04059   1.98897
   D40       -0.27164  -0.00153  -0.00899  -0.09920  -0.10832  -0.37997
   D41       -2.41073  -0.00390  -0.02820  -0.07109  -0.09920  -2.50993
   D42        1.87581   0.00109   0.01734  -0.06204  -0.04510   1.83070
         Item               Value     Threshold  Converged?
 Maximum Force            0.045632     0.000450     NO 
 RMS     Force            0.009285     0.000300     NO 
 Maximum Displacement     0.177672     0.001800     NO 
 RMS     Displacement     0.057413     0.001200     NO 
 Predicted change in Energy=-7.127098D-03
 GradGradGradGradGradGradGradGradGradGradGradGradGradGradGradGradGradGrad

                          Input orientation:                          
 ---------------------------------------------------------------------
 Center     Atomic      Atomic             Coordinates (Angstroms)
 Number     Number       Type             X           Y           Z
 ---------------------------------------------------------------------
      1          6           0        1.365543   -0.010149   -0.297529
      2          6           0        0.734180    1.220327    0.321284
      3          6           0       -0.716139    1.341010   -0.141990
      4          6           0       -1.494913    0.009959   -0.054220
      5          6           0       -0.664314   -1.290969    0.051603
      6          8           0        0.752243   -1.193589    0.157197
      7          1           0       -2.148261   -0.069442   -0.926174
      8          1           0       -2.191394    0.042612    0.787913
      9          1           0       -0.951697   -1.841952    0.951856
     10          1           0       -0.896041   -1.963765   -0.786181
     11          1           0        1.357162    0.060642   -1.402582
     12          1           0        2.409224   -0.130671    0.003062
     13          1           0        1.306262    2.110872    0.037924
     14          1           0        0.807904    1.143607    1.414125
     15          1           0       -0.716983    1.711711   -1.173742
     16          1           0       -1.233174    2.116397    0.430053
 ---------------------------------------------------------------------
                    Distance matrix (angstroms):
                    1          2          3          4          5
     1  C    0.000000
     2  C    1.515131   0.000000
     3  C    2.486609   1.527289   0.000000
     4  C    2.870856   2.564147   1.544633   0.000000
     5  C    2.425431   2.887061   2.639598   1.547095   0.000000
     6  O    1.408348   2.419554   2.944461   2.557916   1.423821
     7  H    3.570089   3.395309   2.157613   1.092461   2.156449
     8  H    3.719244   3.188062   2.174151   1.093317   2.156980
     9  H    3.207190   3.552092   3.373905   2.176430   1.093904
    10  H    3.028227   3.744669   3.371778   2.188607   1.099197
    11  H    1.107350   2.169030   2.743540   3.155151   2.833350
    12  H    1.092772   2.175370   3.457568   3.907089   3.285618
    13  H    2.148202   1.095737   2.171442   3.502700   3.931396
    14  H    2.138195   1.098008   2.187045   2.957053   3.154529
    15  H    2.840681   2.140663   1.096327   2.180473   3.243505
    16  H    3.435827   2.164545   1.093519   2.177179   3.475193
                    6          7          8          9         10
     6  O    0.000000
     7  H    3.293983   0.000000
     8  H    3.254381   1.718287   0.000000
     9  H    1.988786   2.846147   2.261705   0.000000
    10  H    2.049384   2.275108   2.860291   1.743189   0.000000
    11  H    2.090917   3.540040   4.170233   3.807108   3.091132
    12  H    1.974624   4.651656   4.670300   3.889021   3.861077
    13  H    3.352704   4.197259   4.132043   4.643109   4.704461
    14  H    2.654327   3.960732   3.255782   3.496205   4.171395
    15  H    3.517214   2.298337   2.967805   4.147502   3.700188
    16  H    3.869410   2.730316   2.312321   4.002503   4.270902
                   11         12         13         14         15
    11  H    0.000000
    12  H    1.766146   0.000000
    13  H    2.506211   2.498450   0.000000
    14  H    3.067302   2.485782   1.754392   0.000000
    15  H    2.660916   3.814762   2.391858   3.056972   0.000000
    16  H    3.780810   4.301011   2.569539   2.465911   1.732738
                   16
    16  H    0.000000
 Stoichiometry    C5H10O
 Framework group  C1[X(C5H10O)]
 Deg. of freedom    42
 Full point group                 C1      NOp   1
 Largest Abelian subgroup         C1      NOp   1
 Largest concise Abelian subgroup C1      NOp   1
                         Standard orientation:                         
 ---------------------------------------------------------------------
 Center     Atomic      Atomic             Coordinates (Angstroms)
 Number     Number       Type             X           Y           Z
 ---------------------------------------------------------------------
      1          6           0       -0.821870   -1.110726    0.308050
      2          6           0       -1.405199    0.136968   -0.323306
      3          6           0       -0.608060    1.359946    0.125589
      4          6           0        0.920379    1.154942    0.037620
      5          6           0        1.435655   -0.300983   -0.053358
      6          8           0        0.487844   -1.359437   -0.146085
      7          1           0        1.386024    1.630779    0.903775
      8          1           0        1.321470    1.715243   -0.811220
      9          1           0        2.045481   -0.422730   -0.953311
     10          1           0        2.110070   -0.522812    0.785804
     11          1           0       -0.870816   -1.048712    1.412578
     12          1           0       -1.368896   -2.011156    0.017986
     13          1           0       -2.458831    0.236289   -0.039343
     14          1           0       -1.391726    0.019907   -1.414973
     15          1           0       -0.898298    1.599593    1.155280
     16          1           0       -0.902664    2.238216   -0.455473
 ---------------------------------------------------------------------
 Rotational constants (GHZ):      4.5872701      4.3808334      2.4971868
 Standard basis: 6-31G(d) (6D, 7F)
 There are   110 symmetry adapted basis functions of A   symmetry.
 Integral buffers will be    131072 words long.
 Raffenetti 2 integral format.
 Two-electron integral symmetry is turned on.
   110 basis functions,   208 primitive gaussians,   110 cartesian basis functions
    24 alpha electrons       24 beta electrons
       nuclear repulsion energy       257.6647342667 Hartrees.
 NAtoms=   16 NActive=   16 NUniq=   16 SFac= 1.00D+00 NAtFMM=   50 NAOKFM=F Big=F
 One-electron integrals computed using PRISM.
 NBasis=   110 RedAO= T  NBF=   110
 NBsUse=   110 1.00D-06 NBFU=   110
 Initial guess read from the read-write file.
 B after Tr=     0.000000    0.000000    0.000000
         Rot=    1.000000    0.000000    0.000000    0.000000 Ang=   0.00 deg.
 Initial guess orbital symmetries:
       Occupied  (A) (A) (A) (A) (A) (A) (A) (A) (A) (A) (A) (A)
                 (A) (A) (A) (A) (A) (A) (A) (A) (A) (A) (A) (A)
       Virtual   (A) (A) (A) (A) (A) (A) (A) (A) (A) (A) (A) (A)
                 (A) (A) (A) (A) (A) (A) (A) (A) (A) (A) (A) (A)
                 (A) (A) (A) (A) (A) (A) (A) (A) (A) (A) (A) (A)
                 (A) (A) (A) (A) (A) (A) (A) (A) (A) (A) (A) (A)
                 (A) (A) (A) (A) (A) (A) (A) (A) (A) (A) (A) (A)
                 (A) (A) (A) (A) (A) (A) (A) (A) (A) (A) (A) (A)
                 (A) (A) (A) (A) (A) (A) (A) (A) (A) (A) (A) (A)
                 (A) (A)
 Harris functional with IExCor= 1009 diagonalized for initial guess.
 ExpMin= 1.61D-01 ExpMax= 5.48D+03 ExpMxC= 8.25D+02 IAcc=1 IRadAn=         1 AccDes= 0.00D+00
 HarFok:  IExCor= 1009 AccDes= 0.00D+00 IRadAn=         1 IDoV= 1
 ScaDFX=  1.000000  1.000000  1.000000  1.000000
 FoFCou: FMM=F IPFlag=           0 FMFlag=      100000 FMFlg1=           0
         NFxFlg=           0 DoJE=T BraDBF=F KetDBF=T FulRan=T
         Omega=  0.000000  0.000000  1.000000  0.000000  0.000000 ICntrl=     500 IOpCl=  0
         NMat0=    1 NMatS0=    1 NMatT0=    0 NMatD0=    1 NMtDS0=    0 NMtDT0=    0
         I1Cent=           4 NGrid=           0.
 Petite list used in FoFCou.
 Requested convergence on RMS density matrix=1.00D-08 within 128 cycles.
 Requested convergence on MAX density matrix=1.00D-06.
 Requested convergence on             energy=1.00D-06.
 No special actions if energy rises.
 Keep R1 ints in memory in canonical form, NReq=19758713.
 Integral accuracy reduced to 1.0D-05 until final iterations.
 Initial convergence to 1.0D-05 achieved.  Increase integral accuracy.
 SCF Done:  E(RM062X) =  -271.620114982     A.U. after   15 cycles
             Convg  =    0.6138D-08             -V/T =  2.0086
 Calling FoFJK, ICntrl=      2127 FMM=F ISym2X=0 I1Cent= 0 IOpClX= 0 NMat=1 NMatS=1 NMatT=0.
 ***** Axes restored to original set *****
 -------------------------------------------------------------------
 Center     Atomic                   Forces (Hartrees/Bohr)
 Number     Number              X              Y              Z
 -------------------------------------------------------------------
      1        6           0.003178940   -0.005046426   -0.002761531
      2        6           0.002325843    0.002422443    0.002250086
      3        6           0.000753257    0.002634420   -0.000964947
      4        6          -0.003991993    0.001527783    0.000435028
      5        6           0.005310473   -0.007552483   -0.000576480
      6        8          -0.004950413    0.003227812    0.002745344
      7        1           0.000632761   -0.000123511   -0.002032799
      8        1           0.003043589    0.001096433    0.003584839
      9        1          -0.002424853    0.000974364    0.000594378
     10        1           0.000486354    0.003327002   -0.002945017
     11        1          -0.003321556    0.000025282    0.001621743
     12        1           0.001445847    0.003215352   -0.000069181
     13        1          -0.001074599    0.000666851   -0.001128418
     14        1          -0.002044653   -0.002340260   -0.000846767
     15        1           0.001462061   -0.003319302   -0.001521971
     16        1          -0.000831056   -0.000735759    0.001615693
 -------------------------------------------------------------------
 Cartesian Forces:  Max     0.007552483 RMS     0.002614690

 GradGradGradGradGradGradGradGradGradGradGradGradGradGradGradGradGradGrad
 Berny optimization.
 Using GEDIIS/GDIIS optimizer.
 Internal  Forces:  Max     0.003181907 RMS     0.001190579
 Search for a local minimum.
 Step number   3 out of a maximum of   99
 All quantities printed in internal units (Hartrees-Bohrs-Radians)
 Mixed Optimization -- RFO/linear search
 Update second derivatives using D2CorX and points    2    3
 DE= -1.16D-02 DEPred=-7.13D-03 R= 1.63D+00
 SS=  1.41D+00  RLast= 4.69D-01 DXNew= 8.4853D-01 1.4083D+00
 Trust test= 1.63D+00 RLast= 4.69D-01 DXMaxT set to 8.49D-01
 ITU=  1  1  0
 Use linear search instead of GDIIS.
     Eigenvalues ---    0.01833   0.02104   0.02324   0.03705   0.03864
     Eigenvalues ---    0.04813   0.05233   0.05946   0.06023   0.06191
     Eigenvalues ---    0.06650   0.06881   0.07198   0.08586   0.08786
     Eigenvalues ---    0.09348   0.09965   0.10487   0.11787   0.12111
     Eigenvalues ---    0.12806   0.12926   0.13866   0.18581   0.19152
     Eigenvalues ---    0.22289   0.34043   0.34123   0.34125   0.34126
     Eigenvalues ---    0.34127   0.34129   0.34129   0.34133   0.34137
     Eigenvalues ---    0.34213   0.38668   0.41476   0.43291   0.44362
     Eigenvalues ---    0.45759   0.45886
 RFO step:  Lambda=-1.52290928D-03 EMin= 1.83277546D-02
 Quartic linear search produced a step of -0.05207.
 Iteration  1 RMS(Cart)=  0.01759132 RMS(Int)=  0.00030388
 Iteration  2 RMS(Cart)=  0.00032576 RMS(Int)=  0.00005366
 Iteration  3 RMS(Cart)=  0.00000006 RMS(Int)=  0.00005366
 Variable       Old X    -DE/DX   Delta X   Delta X   Delta X     New X
                                 (Linear)    (Quad)   (Total)
    R1        2.86318   0.00035  -0.00527   0.01059   0.00534   2.86852
    R2        2.66139   0.00075  -0.00006   0.00120   0.00114   2.66253
    R3        2.09259  -0.00160  -0.00045  -0.00349  -0.00393   2.08865
    R4        2.06504   0.00101   0.00027   0.00240   0.00267   2.06771
    R5        2.88616  -0.00188  -0.00588   0.00794   0.00208   2.88823
    R6        2.07064   0.00027   0.00012   0.00063   0.00075   2.07139
    R7        2.07494  -0.00081   0.00014  -0.00226  -0.00212   2.07281
    R8        2.91893  -0.00172  -0.00641   0.00994   0.00352   2.92245
    R9        2.07176   0.00031   0.00024   0.00067   0.00091   2.07267
   R10        2.06645   0.00071   0.00029   0.00160   0.00189   2.06834
   R11        2.92359   0.00114  -0.00629   0.01519   0.00887   2.93246
   R12        2.06445   0.00126   0.00027   0.00307   0.00334   2.06779
   R13        2.06607   0.00085   0.00031   0.00194   0.00225   2.06832
   R14        2.69063  -0.00210  -0.00098  -0.00294  -0.00393   2.68670
   R15        2.06718   0.00063   0.00018   0.00149   0.00167   2.06885
   R16        2.07718   0.00011  -0.00004   0.00048   0.00045   2.07763
    A1        1.94883  -0.00019   0.00086  -0.00665  -0.00582   1.94301
    A2        1.93104  -0.00074  -0.00117  -0.00977  -0.01102   1.92002
    A3        1.95542  -0.00255  -0.00167  -0.01003  -0.01170   1.94372
    A4        1.95264  -0.00063  -0.00259  -0.00549  -0.00827   1.94437
    A5        1.80742   0.00283   0.00320   0.02321   0.02643   1.83385
    A6        1.86375   0.00150   0.00154   0.01124   0.01271   1.87646
    A7        1.91345  -0.00060   0.00139  -0.00713  -0.00571   1.90775
    A8        1.91438   0.00091  -0.00050   0.00749   0.00691   1.92128
    A9        1.89840  -0.00020  -0.00007  -0.00301  -0.00315   1.89526
   A10        1.93170  -0.00102  -0.00110  -0.00900  -0.01006   1.92164
   A11        1.95108  -0.00009  -0.00189  -0.00120  -0.00315   1.94793
   A12        1.85367   0.00109   0.00219   0.01370   0.01591   1.86958
   A13        1.97517   0.00083   0.00122   0.00160   0.00272   1.97789
   A14        1.88906  -0.00038  -0.00022  -0.00470  -0.00493   1.88413
   A15        1.92446   0.00000  -0.00169   0.00369   0.00201   1.92647
   A16        1.92246  -0.00114  -0.00110  -0.01110  -0.01218   1.91028
   A17        1.92082  -0.00087  -0.00111  -0.00487  -0.00597   1.91485
   A18        1.82573   0.00162   0.00306   0.01642   0.01946   1.84519
   A19        2.04633   0.00046   0.00106  -0.00151  -0.00057   2.04577
   A20        1.89526  -0.00077  -0.00098  -0.00817  -0.00914   1.88613
   A21        1.91687  -0.00077  -0.00200  -0.00311  -0.00510   1.91178
   A22        1.89079  -0.00041  -0.00076  -0.00453  -0.00534   1.88545
   A23        1.89066  -0.00009  -0.00065   0.00067   0.00005   1.89071
   A24        1.80902   0.00177   0.00374   0.01942   0.02316   1.83217
   A25        2.07339  -0.00129   0.00001  -0.00866  -0.00879   2.06460
   A26        1.91643  -0.00208  -0.00082  -0.01097  -0.01175   1.90468
   A27        1.92770  -0.00169  -0.00146  -0.01303  -0.01449   1.91320
   A28        1.80780   0.00218   0.00190   0.01232   0.01422   1.82202
   A29        1.88402   0.00138  -0.00147   0.00699   0.00541   1.88943
   A30        1.83752   0.00216   0.00229   0.01838   0.02055   1.85807
   A31        2.05644   0.00069  -0.00011   0.00003  -0.00026   2.05619
    D1       -1.13035   0.00050   0.00374  -0.00947  -0.00572  -1.13607
    D2        3.02836   0.00158   0.00454   0.00146   0.00600   3.03436
    D3        1.00787  -0.00011   0.00223  -0.01737  -0.01514   0.99274
    D4        1.05677  -0.00102   0.00016  -0.02895  -0.02874   1.02803
    D5       -1.06771   0.00005   0.00096  -0.01802  -0.01701  -1.08472
    D6       -3.08819  -0.00163  -0.00135  -0.03684  -0.03815  -3.12634
    D7        3.13437  -0.00130   0.00026  -0.02790  -0.02761   3.10676
    D8        1.00990  -0.00022   0.00106  -0.01697  -0.01589   0.99401
    D9       -1.01059  -0.00191  -0.00125  -0.03579  -0.03703  -1.04762
   D10        0.91527   0.00086  -0.00592   0.03949   0.03368   0.94894
   D11       -1.25984   0.00247  -0.00314   0.06161   0.05853  -1.20131
   D12        3.02247  -0.00057  -0.00543   0.03814   0.03268   3.05515
   D13        0.80731  -0.00028  -0.00146   0.00174   0.00029   0.80761
   D14       -1.32857   0.00090  -0.00071   0.01818   0.01747  -1.31110
   D15        2.96720  -0.00081  -0.00332  -0.00067  -0.00401   2.96320
   D16        2.92137  -0.00020  -0.00190   0.00061  -0.00123   2.92014
   D17        0.78549   0.00098  -0.00114   0.01705   0.01595   0.80144
   D18       -1.20193  -0.00073  -0.00376  -0.00180  -0.00553  -1.20746
   D19       -1.29927   0.00044  -0.00105   0.01113   0.01008  -1.28919
   D20        2.84803   0.00161  -0.00030   0.02757   0.02726   2.87529
   D21        0.86062  -0.00010  -0.00291   0.00872   0.00578   0.86640
   D22       -0.31496  -0.00028   0.00215  -0.01675  -0.01464  -0.32960
   D23       -2.46394   0.00058   0.00321  -0.00272   0.00044  -2.46350
   D24        1.85222  -0.00070   0.00035  -0.01972  -0.01941   1.83281
   D25        1.80219  -0.00102   0.00189  -0.02974  -0.02784   1.77435
   D26       -0.34678  -0.00017   0.00296  -0.01572  -0.01276  -0.35955
   D27       -2.31381  -0.00145   0.00010  -0.03271  -0.03261  -2.34642
   D28       -2.47685  -0.00022   0.00432  -0.01903  -0.01470  -2.49155
   D29        1.65736   0.00063   0.00539  -0.00501   0.00037   1.65773
   D30       -0.30967  -0.00065   0.00253  -0.02200  -0.01947  -0.32914
   D31        0.07592   0.00058  -0.00370   0.03853   0.03479   0.11071
   D32        2.15044   0.00088  -0.00181   0.03987   0.03804   2.18847
   D33       -2.11386   0.00130  -0.00035   0.04820   0.04780  -2.06606
   D34        2.22718  -0.00046  -0.00488   0.02267   0.01777   2.24495
   D35       -1.98149  -0.00016  -0.00299   0.02401   0.02102  -1.96047
   D36        0.03740   0.00027  -0.00153   0.03234   0.03079   0.06819
   D37       -2.10443   0.00135  -0.00123   0.04333   0.04209  -2.06234
   D38       -0.02992   0.00165   0.00066   0.04467   0.04534   0.01542
   D39        1.98897   0.00207   0.00211   0.05301   0.05511   2.04408
   D40       -0.37997  -0.00104   0.00564  -0.05088  -0.04523  -0.42519
   D41       -2.50993   0.00073   0.00517  -0.04099  -0.03570  -2.54563
   D42        1.83070  -0.00318   0.00235  -0.06970  -0.06750   1.76320
         Item               Value     Threshold  Converged?
 Maximum Force            0.003182     0.000450     NO 
 RMS     Force            0.001191     0.000300     NO 
 Maximum Displacement     0.063840     0.001800     NO 
 RMS     Displacement     0.017587     0.001200     NO 
 Predicted change in Energy=-8.489790D-04
 GradGradGradGradGradGradGradGradGradGradGradGradGradGradGradGradGradGrad

                          Input orientation:                          
 ---------------------------------------------------------------------
 Center     Atomic      Atomic             Coordinates (Angstroms)
 Number     Number       Type             X           Y           Z
 ---------------------------------------------------------------------
      1          6           0        1.365824   -0.014823   -0.290075
      2          6           0        0.739104    1.223891    0.323925
      3          6           0       -0.711864    1.339990   -0.142105
      4          6           0       -1.494166    0.009412   -0.046093
      5          6           0       -0.662721   -1.297270    0.050494
      6          8           0        0.748701   -1.189632    0.183346
      7          1           0       -2.143591   -0.066497   -0.923490
      8          1           0       -2.176784    0.047013    0.808639
      9          1           0       -0.977481   -1.858143    0.936445
     10          1           0       -0.879206   -1.937503   -0.816679
     11          1           0        1.323379    0.046851   -1.392804
     12          1           0        2.418019   -0.111821   -0.005969
     13          1           0        1.302316    2.116587    0.028300
     14          1           0        0.807624    1.145817    1.415879
     15          1           0       -0.706002    1.685945   -1.182907
     16          1           0       -1.233554    2.116783    0.425696
 ---------------------------------------------------------------------
                    Distance matrix (angstroms):
                    1          2          3          4          5
     1  C    0.000000
     2  C    1.517955   0.000000
     3  C    2.484793   1.528388   0.000000
     4  C    2.870481   2.568923   1.546496   0.000000
     5  C    2.423975   2.897608   2.644739   1.551789   0.000000
     6  O    1.408952   2.417633   2.939073   2.553586   1.421740
     7  H    3.566494   3.395743   2.153743   1.094230   2.157874
     8  H    3.709591   3.181570   2.172945   1.094508   2.162005
     9  H    3.223858   3.580612   3.385539   2.172581   1.094789
    10  H    3.002361   3.730190   3.350375   2.182306   1.099433
    11  H    1.105268   2.161934   2.716371   3.123074   2.798993
    12  H    1.094184   2.170649   3.452891   3.914269   3.301429
    13  H    2.155992   1.096133   2.165424   3.502289   3.939071
    14  H    2.137510   1.096884   2.184917   2.954153   3.161465
    15  H    2.825283   2.138309   1.096809   2.173548   3.228424
    16  H    3.436981   2.167715   1.094516   2.175205   3.481721
                    6          7          8          9         10
     6  O    0.000000
     7  H    3.294217   0.000000
     8  H    3.237088   1.736161   0.000000
     9  H    1.998442   2.833578   2.254835   0.000000
    10  H    2.051692   2.260695   2.874660   1.757669   0.000000
    11  H    2.084081   3.500426   4.134911   3.787924   3.020093
    12  H    1.996031   4.653190   4.669157   3.932837   3.855134
    13  H    3.355832   4.188798   4.122645   4.671261   4.680670
    14  H    2.641388   3.956263   3.237715   3.527072   4.163721
[...]
 H,0,1.2803404334,2.0846467286,-0.1496093717
 H,0,0.6878630656,1.3544695246,1.350120161
 H,0,-0.7197963487,1.2868803109,-1.3702720404
 H,0,-1.261761668,2.1837466881,0.0482435603
 Recover connectivity data from disk.
                          Input orientation:                          
 ---------------------------------------------------------------------
 Center     Atomic      Atomic             Coordinates (Angstroms)
 Number     Number       Type             X           Y           Z
 ---------------------------------------------------------------------
      1          6           0        1.358918   -0.073060   -0.102420
      2          6           0        0.695002    1.252879    0.258062
      3          6           0       -0.741105    1.275258   -0.271418
      4          6           0       -1.484119    0.023602    0.202605
      5          6           0       -0.679161   -1.222497   -0.154688
      6          8           0        0.623375   -1.174106    0.391421
      7          1           0       -2.482426   -0.037492   -0.245022
      8          1           0       -1.609063    0.058317    1.291714
      9          1           0       -1.144675   -2.128298    0.243130
     10          1           0       -0.617691   -1.322127   -1.252820
     11          1           0        1.455323   -0.153154   -1.199632
     12          1           0        2.358577   -0.152464    0.333185
     13          1           0        1.280340    2.084647   -0.149609
     14          1           0        0.687863    1.354470    1.350120
     15          1           0       -0.719796    1.286880   -1.370272
     16          1           0       -1.261762    2.183747    0.048244
 ---------------------------------------------------------------------
                    Distance matrix (angstroms):
                    1          2          3          4          5
     1  C    0.000000
     2  C    1.526056   0.000000
     3  C    2.501324   1.530769   0.000000
     4  C    2.860987   2.502552   1.530820   0.000000
     5  C    2.340450   2.861149   2.501249   1.525903   0.000000
     6  O    1.413226   2.431701   2.881067   2.431395   1.413214
     7  H    3.844155   3.466151   2.180873   1.095774   2.159668
     8  H    3.281735   2.793587   2.162793   1.096801   2.144127
     9  H    3.257513   3.849284   3.465807   2.178884   1.093360
    10  H    2.605873   3.261378   2.779351   2.163318   1.104355
    11  H    1.104347   2.163305   2.779611   3.261568   2.606036
    12  H    1.093332   2.179017   3.465829   3.848943   3.257429
    13  H    2.159653   1.095744   2.180869   3.466150   3.844070
    14  H    2.144302   1.096796   2.162778   2.793833   3.282371
    15  H    2.788896   2.157379   1.099122   2.157314   2.788597
    16  H    3.461768   2.177031   1.094814   2.177039   3.461662
                    6          7          8          9         10
     6  O    0.000000
     7  H    3.367930   0.000000
     8  H    2.704287   1.770169   0.000000
     9  H    2.014565   2.529692   2.469103   0.000000
    10  H    2.065354   2.478544   3.059918   1.779183   0.000000
    11  H    2.065413   4.053458   3.954994   3.569698   2.380486
    12  H    2.014466   4.876767   4.087221   4.023035   3.569552
    13  H    3.368054   4.320994   3.812096   4.876869   4.052864
    14  H    2.704987   3.812187   2.638047   4.088189   3.955242
    15  H    3.311212   2.475281   3.063712   3.800925   2.613645
    16  H    3.866094   2.551456   2.486823   4.318034   3.794568
                   11         12         13         14         15
    11  H    0.000000
    12  H    1.779156   0.000000
    13  H    2.478088   2.529891   0.000000
    14  H    3.059928   2.469067   1.770135   0.000000
    15  H    2.614184   3.801297   2.475277   3.063757   0.000000
    16  H    3.794844   4.318093   2.551715   2.486689   1.763599
                   16
    16  H    0.000000
 Stoichiometry    C5H10O
 Framework group  C1[X(C5H10O)]
 Deg. of freedom    42
 Full point group                 C1      NOp   1
 Largest Abelian subgroup         C1      NOp   1
 Largest concise Abelian subgroup C1      NOp   1
                         Standard orientation:                         
 ---------------------------------------------------------------------
 Center     Atomic      Atomic             Coordinates (Angstroms)
 Number     Number       Type             X           Y           Z
 ---------------------------------------------------------------------
      1          6           0       -1.168626   -0.770918    0.202603
      2          6           0       -1.252751    0.691022   -0.226932
      3          6           0       -0.002957    1.441881    0.239414
      4          6           0        1.249796    0.695987   -0.227130
      5          6           0        1.171819   -0.766015    0.202809
      6          8           0        0.002950   -1.390480   -0.288072
      7          1           0        2.158134    1.155124    0.178871
      8          1           0        1.317241    0.735209   -1.321152
      9          1           0        2.014410   -1.343926   -0.186418
     10          1           0        1.191782   -0.830045    1.305125
     11          1           0       -1.188699   -0.835179    1.304895
     12          1           0       -2.008616   -1.352306   -0.186986
     13          1           0       -2.162851    1.146133    0.179573
     14          1           0       -1.320801    0.730342   -1.320909
     15          1           0       -0.002888    1.494362    1.337283
     16          1           0       -0.005006    2.472385   -0.130283
 ---------------------------------------------------------------------
 Rotational constants (GHZ):      4.7024082      4.5199616      2.6174990
 Standard basis: 6-311++G(d,p) (5D, 7F)
 There are   202 symmetry adapted basis functions of A   symmetry.
 Integral buffers will be    131072 words long.
 Raffenetti 2 integral format.
 Two-electron integral symmetry is turned on.
   202 basis functions,   306 primitive gaussians,   208 cartesian basis functions
    24 alpha electrons       24 beta electrons
       nuclear repulsion energy       260.6186862480 Hartrees.
 NAtoms=   16 NActive=   16 NUniq=   16 SFac= 1.00D+00 NAtFMM=   50 NAOKFM=F Big=F
 One-electron integrals computed using PRISM.
 NBasis=   202 RedAO= T  NBF=   202
 NBsUse=   202 1.00D-06 NBFU=   202
 Initial guess read from the checkpoint file:  /home/hmayes/gaussian/pucker/chks/1H200.chk
 B after Tr=     0.000000    0.000000    0.000000
         Rot=    1.000000    0.000000    0.000000    0.000000 Ang=   0.00 deg.
 Initial guess orbital symmetries:
       Occupied  (A) (A) (A) (A) (A) (A) (A) (A) (A) (A) (A) (A)
                 (A) (A) (A) (A) (A) (A) (A) (A) (A) (A) (A) (A)
       Virtual   (A) (A) (A) (A) (A) (A) (A) (A) (A) (A) (A) (A)
                 (A) (A) (A) (A) (A) (A) (A) (A) (A) (A) (A) (A)
                 (A) (A) (A) (A) (A) (A) (A) (A) (A) (A) (A) (A)
                 (A) (A) (A) (A) (A) (A) (A) (A) (A) (A) (A) (A)
                 (A) (A) (A) (A) (A) (A) (A) (A) (A) (A) (A) (A)
                 (A) (A) (A) (A) (A) (A) (A) (A) (A) (A) (A) (A)
                 (A) (A) (A) (A) (A) (A) (A) (A) (A) (A) (A) (A)
                 (A) (A) (A) (A) (A) (A) (A) (A) (A) (A) (A) (A)
                 (A) (A) (A) (A) (A) (A) (A) (A) (A) (A) (A) (A)
                 (A) (A) (A) (A) (A) (A) (A) (A) (A) (A) (A) (A)
                 (A) (A) (A) (A) (A) (A) (A) (A) (A) (A) (A) (A)
                 (A) (A) (A) (A) (A) (A) (A) (A) (A) (A) (A) (A)
                 (A) (A) (A) (A) (A) (A) (A) (A) (A) (A) (A) (A)
                 (A) (A) (A) (A) (A) (A) (A) (A) (A) (A) (A) (A)
                 (A) (A) (A) (A) (A) (A) (A) (A) (A) (A)
 Requested convergence on RMS density matrix=1.00D-08 within 128 cycles.
 Requested convergence on MAX density matrix=1.00D-06.
 Requested convergence on             energy=1.00D-06.
 No special actions if energy rises.
 Keep R1 ints in memory in canonical form, NReq=241092331.
 SCF Done:  E(RM062X) =  -271.718574205     A.U. after   11 cycles
             Convg  =    0.3614D-08             -V/T =  2.0042

 **********************************************************************

            Population analysis using the SCF density.

 **********************************************************************

 Orbital symmetries:
       Occupied  (A) (A) (A) (A) (A) (A) (A) (A) (A) (A) (A) (A)
                 (A) (A) (A) (A) (A) (A) (A) (A) (A) (A) (A) (A)
       Virtual   (A) (A) (A) (A) (A) (A) (A) (A) (A) (A) (A) (A)
                 (A) (A) (A) (A) (A) (A) (A) (A) (A) (A) (A) (A)
                 (A) (A) (A) (A) (A) (A) (A) (A) (A) (A) (A) (A)
                 (A) (A) (A) (A) (A) (A) (A) (A) (A) (A) (A) (A)
                 (A) (A) (A) (A) (A) (A) (A) (A) (A) (A) (A) (A)
                 (A) (A) (A) (A) (A) (A) (A) (A) (A) (A) (A) (A)
                 (A) (A) (A) (A) (A) (A) (A) (A) (A) (A) (A) (A)
                 (A) (A) (A) (A) (A) (A) (A) (A) (A) (A) (A) (A)
                 (A) (A) (A) (A) (A) (A) (A) (A) (A) (A) (A) (A)
                 (A) (A) (A) (A) (A) (A) (A) (A) (A) (A) (A) (A)
                 (A) (A) (A) (A) (A) (A) (A) (A) (A) (A) (A) (A)
                 (A) (A) (A) (A) (A) (A) (A) (A) (A) (A) (A) (A)
                 (A) (A) (A) (A) (A) (A) (A) (A) (A) (A) (A) (A)
                 (A) (A) (A) (A) (A) (A) (A) (A) (A) (A) (A) (A)
                 (A) (A) (A) (A) (A) (A) (A) (A) (A) (A)
 The electronic state is 1-A.
 Alpha  occ. eigenvalues --  -19.61880 -10.57899 -10.57897 -10.53571 -10.53254
 Alpha  occ. eigenvalues --  -10.53250  -1.15918  -0.90020  -0.86016  -0.73044
 Alpha  occ. eigenvalues --   -0.72211  -0.64595  -0.57362  -0.54389  -0.52449
 Alpha  occ. eigenvalues --   -0.51444  -0.48470  -0.45177  -0.45069  -0.41384
 Alpha  occ. eigenvalues --   -0.39837  -0.38087  -0.36479  -0.31850
 Alpha virt. eigenvalues --   -0.00057   0.01231   0.01256   0.01830   0.03854
 Alpha virt. eigenvalues --    0.03959   0.04133   0.04536   0.05022   0.07345
 Alpha virt. eigenvalues --    0.08374   0.09879   0.10286   0.11140   0.11173
 Alpha virt. eigenvalues --    0.11954   0.13014   0.13434   0.13906   0.14109
 Alpha virt. eigenvalues --    0.14394   0.15481   0.16046   0.16312   0.16486
 Alpha virt. eigenvalues --    0.16938   0.17183   0.17804   0.18295   0.19619
 Alpha virt. eigenvalues --    0.22074   0.22570   0.25948   0.25979   0.27275
 Alpha virt. eigenvalues --    0.27920   0.27991   0.29036   0.30423   0.32785
 Alpha virt. eigenvalues --    0.33364   0.33562   0.34717   0.35939   0.36565
 Alpha virt. eigenvalues --    0.37446   0.37467   0.37863   0.38924   0.41974
 Alpha virt. eigenvalues --    0.48514   0.48825   0.50941   0.51011   0.53379
 Alpha virt. eigenvalues --    0.57332   0.60253   0.63442   0.64252   0.66236
 Alpha virt. eigenvalues --    0.67738   0.68909   0.70102   0.71561   0.72319
 Alpha virt. eigenvalues --    0.73113   0.73716   0.73804   0.75736   0.78072
 Alpha virt. eigenvalues --    0.78381   0.79957   0.80046   0.81421   0.91641
 Alpha virt. eigenvalues --    0.92674   0.95249   1.02930   1.04605   1.07890
 Alpha virt. eigenvalues --    1.11713   1.11924   1.17695   1.25322   1.26889
 Alpha virt. eigenvalues --    1.27232   1.31957   1.34467   1.38893   1.45908
 Alpha virt. eigenvalues --    1.49928   1.55337   1.57786   1.59090   1.59584
 Alpha virt. eigenvalues --    1.61707   1.62200   1.63735   1.64628   1.64683
 Alpha virt. eigenvalues --    1.65351   1.68073   1.72063   1.74118   1.75938
 Alpha virt. eigenvalues --    1.77217   1.77484   1.79295   1.82375   1.82808
 Alpha virt. eigenvalues --    1.83990   1.87461   1.89640   1.90285   1.91395
 Alpha virt. eigenvalues --    2.02007   2.02696   2.07417   2.08298   2.18397
 Alpha virt. eigenvalues --    2.20032   2.22571   2.22943   2.25808   2.31233
 Alpha virt. eigenvalues --    2.31974   2.36332   2.37546   2.44744   2.49057
 Alpha virt. eigenvalues --    2.52883   2.54536   2.55834   2.57998   2.63275
 Alpha virt. eigenvalues --    2.64944   2.68714   2.69860   2.72437   2.74824
 Alpha virt. eigenvalues --    2.76293   2.79681   2.81031   2.85077   2.88787
 Alpha virt. eigenvalues --    2.89085   2.90324   2.96630   2.99977   3.01819
 Alpha virt. eigenvalues --    3.04435   3.12027   3.16821   3.26724   3.29517
 Alpha virt. eigenvalues --    3.37559   3.41350   3.47116   3.80973   3.82443
 Alpha virt. eigenvalues --    3.88012   3.88530   3.92705   4.08462   4.12745
 Alpha virt. eigenvalues --    4.18848   4.20462   4.35768   4.37623   5.25789
 Alpha virt. eigenvalues --    5.51777   5.78555  23.90826  23.97394  23.98651
 Alpha virt. eigenvalues --   24.00945  24.02980  50.05627
          Condensed to atoms (all electrons):
              1          2          3          4          5          6
     1  C    5.801909   0.037511  -0.231961   0.216763  -0.290914   0.202592
     2  C    0.037511   5.604821   0.000882  -0.110770   0.217020  -0.083192
     3  C   -0.231961   0.000882   5.878078   0.001237  -0.232237  -0.011328
     4  C    0.216763  -0.110770   0.001237   5.604535   0.037502  -0.083172
     5  C   -0.290914   0.217020  -0.232237   0.037502   5.802137   0.202558
     6  O    0.202592  -0.083192  -0.011328  -0.083172   0.202558   8.095916
     7  H    0.000983   0.022375  -0.073464   0.376770   0.002918   0.010458
     8  H   -0.016323  -0.054260   0.047520   0.488204  -0.135099   0.001019
     9  H    0.025363  -0.004114  -0.001309  -0.034484   0.426196  -0.084340
    10  H   -0.036028  -0.010191   0.043000  -0.065140   0.364271  -0.038619
    11  H    0.364330  -0.065211   0.042959  -0.010146  -0.036033  -0.038616
    12  H    0.426190  -0.034454  -0.001283  -0.004144   0.025366  -0.084364
    13  H    0.002838   0.376851  -0.073398   0.022370   0.000954   0.010444
    14  H   -0.135002   0.488144   0.047440  -0.054228  -0.016303   0.001051
    15  H   -0.031785  -0.062507   0.561602  -0.062413  -0.031871  -0.000293
    16  H    0.014896  -0.030452   0.347584  -0.030453   0.014889   0.006210
              7          8          9         10         11         12
     1  C    0.000983  -0.016323   0.025363  -0.036028   0.364330   0.426190
     2  C    0.022375  -0.054260  -0.004114  -0.010191  -0.065211  -0.034454
     3  C   -0.073464   0.047520  -0.001309   0.043000   0.042959  -0.001283
     4  C    0.376770   0.488204  -0.034484  -0.065140  -0.010146  -0.004144
     5  C    0.002918  -0.135099   0.426196   0.364271  -0.036033   0.025366
     6  O    0.010458   0.001019  -0.084340  -0.038619  -0.038616  -0.084364
     7  H    0.531368  -0.022499  -0.004615   0.002448   0.000020   0.001133
     8  H   -0.022499   0.511045  -0.007657   0.003163   0.002584  -0.000979
     9  H   -0.004615  -0.007657   0.514970  -0.025843  -0.007669   0.002486
    10  H    0.002448   0.003163  -0.025843   0.595027   0.029735  -0.007669
    11  H    0.000020   0.002584  -0.007669   0.029735   0.595032  -0.025859
    12  H    0.001133  -0.000979   0.002486  -0.007669  -0.025859   0.515003
    13  H    0.001921  -0.005200   0.001135   0.000015   0.002423  -0.004601
    14  H   -0.005202   0.009143  -0.000983   0.002589   0.003164  -0.007659
    15  H   -0.009223   0.004816  -0.000177  -0.011323  -0.011323  -0.000174
    16  H   -0.004102  -0.003640  -0.002407   0.008775   0.008776  -0.002409
             13         14         15         16
     1  C    0.002838  -0.135002  -0.031785   0.014896
     2  C    0.376851   0.488144  -0.062507  -0.030452
     3  C   -0.073398   0.047440   0.561602   0.347584
     4  C    0.022370  -0.054228  -0.062413  -0.030453
     5  C    0.000954  -0.016303  -0.031871   0.014889
     6  O    0.010444   0.001051  -0.000293   0.006210
     7  H    0.001921  -0.005202  -0.009223  -0.004102
     8  H   -0.005200   0.009143   0.004816  -0.003640
     9  H    0.001135  -0.000983  -0.000177  -0.002407
    10  H    0.000015   0.002589  -0.011323   0.008775
    11  H    0.002423   0.003164  -0.011323   0.008776
    12  H   -0.004601  -0.007659  -0.000174  -0.002409
    13  H    0.531366  -0.022483  -0.009213  -0.004121
    14  H   -0.022483   0.511027   0.004808  -0.003634
    15  H   -0.009213   0.004808   0.503979  -0.027140
    16  H   -0.004121  -0.003634  -0.027140   0.542398
 Mulliken atomic charges:
              1
     1  C   -0.351363
     2  C   -0.292455
     3  C   -0.345322
     4  C   -0.292430
     5  C   -0.351354
     6  O   -0.106326
     7  H    0.168710
     8  H    0.178162
     9  H    0.203446
    10  H    0.145789
    11  H    0.145835
    12  H    0.203416
    13  H    0.168699
    14  H    0.178128
    15  H    0.182237
    16  H    0.164828
 Sum of Mulliken atomic charges =   0.00000
 Mulliken charges with hydrogens summed into heavy atoms:
              1
     1  C   -0.002113
     2  C    0.054372
     3  C    0.001744
     4  C    0.054442
     5  C   -0.002119
     6  O   -0.106326
 Sum of Mulliken charges with hydrogens summed into heavy atoms =   0.00000
 Electronic spatial extent (au):  <R**2>=            542.8527
 Charge=              0.0000 electrons
 Dipole moment (field-independent basis, Debye):
    X=             -0.0031    Y=              1.4526    Z=              0.7547  Tot=              1.6370
 Quadrupole moment (field-independent basis, Debye-Ang):
   XX=            -35.6674   YY=            -41.8170   ZZ=            -38.7929
   XY=              0.0130   XZ=              0.0030   YZ=             -1.3032
 Traceless Quadrupole moment (field-independent basis, Debye-Ang):
   XX=              3.0917   YY=             -3.0579   ZZ=             -0.0338
   XY=              0.0130   XZ=              0.0030   YZ=             -1.3032
 Octapole moment (field-independent basis, Debye-Ang**2):
  XXX=              0.0329  YYY=              1.6733  ZZZ=             -0.9084  XYY=             -0.0244
  XXY=             -5.1146  XXZ=             -0.7484  XZZ=              0.0011  YZZ=             -1.0049
  YYZ=              0.7664  XYZ=             -0.0038
 Hexadecapole moment (field-independent basis, Debye-Ang**3):
 XXXX=           -320.9840 YYYY=           -326.4453 ZZZZ=            -91.4078 XXXY=             -0.0306
 XXXZ=             -0.0252 YYYX=              0.0543 YYYZ=             -2.0152 ZZZX=              0.0022
 ZZZY=             -0.6483 XXYY=           -101.3555 XXZZ=            -71.0644 YYZZ=            -69.9713
 XXYZ=              4.0078 YYXZ=              0.0222 ZZXY=             -0.0008
 N-N= 2.606186862480D+02 E-N=-1.153974370607D+03  KE= 2.705848546060D+02
 1\1\GINC-RR149\SP\RM062X\6-311++G(d,p)\C5H10O1\HMAYES\06-Jun-2012\0\\#
  m062x/6-311++G(d,p) geom=allcheck guess=read\\from http://6ring.bio.n
 rc.ca/suppl.html\\0,1\C,0,1.3589184765,-0.0730598991,-0.1024202641\C,0
 ,0.6950017751,1.2528787941,0.2580622469\C,0,-0.7411054919,1.2752578212
 ,-0.2714176859\C,0,-1.4841188244,0.0236016282,0.2026053807\C,0,-0.6791
 606495,-1.2224974418,-0.1546877545\O,0,0.6233746156,-1.1741059555,0.39
 14214913\H,0,-2.4824263316,-0.0374918766,-0.2450218359\H,0,-1.60906285
 38,0.0583167413,1.2917135143\H,0,-1.1446747983,-2.1282980395,0.2431300
 455\H,0,-0.6176914702,-1.3221270849,-1.2528203947\H,0,1.4553225844,-0.
 1531540675,-1.1996316586\H,0,2.3585774857,-0.1524638721,0.3331846059\H
 ,0,1.2803404334,2.0846467286,-0.1496093717\H,0,0.6878630656,1.35446952
 46,1.350120161\H,0,-0.7197963487,1.2868803109,-1.3702720404\H,0,-1.261
 761668,2.1837466881,0.0482435603\\Version=EM64L-G09RevB.01\State=1-A\H
 F=-271.7185742\RMSD=3.614e-09\Dipole=-0.2671165,0.488351,-0.3239467\Qu
 adrupole=1.238574,-1.1164501,-0.1221239,1.9013732,-0.4795367,0.9603529
 \PG=C01 [X(C5H10O1)]\\@


 "MATHEMATICS IS THE ART OF GIVING THE SAME NAME
 TO DIFFERENT THINGS."
                    - H. POINCARE
 Job cpu time:  0 days  0 hours  4 minutes 18.7 seconds.
 File lengths (MBytes):  RWF=     21 Int=      0 D2E=      0 Chk=      3 Scr=      1
 Normal termination of Gaussian 09 at Wed Jun  6 09:35:18 2012.
