 Entering Gaussian System, Link 0=g09
 Initial command:
 /projects/nrel/apps/gaussian/g09/B.01/g09/l1.exe /scratch/hmayes/1HO00/Gau-856.inp -scrdir=/scratch/hmayes/1HO00/
 Default is to use a total of   8 processors:
                                8 via shared-memory
                                1 via Linda
 Entering Link 1 = /projects/nrel/apps/gaussian/g09/B.01/g09/l1.exe PID=       857.
  
 Copyright (c) 1988,1990,1992,1993,1995,1998,2003,2009,2010,
            Gaussian, Inc.  All Rights Reserved.
  
 This is part of the Gaussian(R) 09 program.  It is based on
 the Gaussian(R) 03 system (copyright 2003, Gaussian, Inc.),
 the Gaussian(R) 98 system (copyright 1998, Gaussian, Inc.),
 the Gaussian(R) 94 system (copyright 1995, Gaussian, Inc.),
 the Gaussian 92(TM) system (copyright 1992, Gaussian, Inc.),
 the Gaussian 90(TM) system (copyright 1990, Gaussian, Inc.),
 the Gaussian 88(TM) system (copyright 1988, Gaussian, Inc.),
 the Gaussian 86(TM) system (copyright 1986, Carnegie Mellon
 University), and the Gaussian 82(TM) system (copyright 1983,
 Carnegie Mellon University). Gaussian is a federally registered
 trademark of Gaussian, Inc.
  
 This software contains proprietary and confidential information,
 including trade secrets, belonging to Gaussian, Inc.
  
 This software is provided under written license and may be
 used, copied, transmitted, or stored only in accord with that
 written license.
  
 The following legend is applicable only to US Government
 contracts under FAR:
  
                    RESTRICTED RIGHTS LEGEND
  
 Use, reproduction and disclosure by the US Government is
 subject to restrictions as set forth in subparagraphs (a)
 and (c) of the Commercial Computer Software - Restricted
 Rights clause in FAR 52.227-19.
  
 Gaussian, Inc.
 340 Quinnipiac St., Bldg. 40, Wallingford CT 06492
  
  
 ---------------------------------------------------------------
 Warning -- This program may not be used in any manner that
 competes with the business of Gaussian, Inc. or will provide
 assistance to any competitor of Gaussian, Inc.  The licensee
 of this program is prohibited from giving any competitor of
 Gaussian, Inc. access to this program.  By using this program,
 the user acknowledges that Gaussian, Inc. is engaged in the
 business of creating and licensing software in the field of
 computational chemistry and represents and warrants to the
 licensee that it is not a competitor of Gaussian, Inc. and that
 it will not use this program in any manner prohibited above.
 ---------------------------------------------------------------
  

 Cite this work as:
 Gaussian 09, Revision B.01,
 M. J. Frisch, G. W. Trucks, H. B. Schlegel, G. E. Scuseria, 
 M. A. Robb, J. R. Cheeseman, G. Scalmani, V. Barone, B. Mennucci, 
 G. A. Petersson, H. Nakatsuji, M. Caricato, X. Li, H. P. Hratchian, 
 A. F. Izmaylov, J. Bloino, G. Zheng, J. L. Sonnenberg, M. Hada, 
 M. Ehara, K. Toyota, R. Fukuda, J. Hasegawa, M. Ishida, T. Nakajima, 
 Y. Honda, O. Kitao, H. Nakai, T. Vreven, J. A. Montgomery, Jr., 
 J. E. Peralta, F. Ogliaro, M. Bearpark, J. J. Heyd, E. Brothers, 
 K. N. Kudin, V. N. Staroverov, T. Keith, R. Kobayashi, J. Normand, 
 K. Raghavachari, A. Rendell, J. C. Burant, S. S. Iyengar, J. Tomasi, 
 M. Cossi, N. Rega, J. M. Millam, M. Klene, J. E. Knox, J. B. Cross, 
 V. Bakken, C. Adamo, J. Jaramillo, R. Gomperts, R. E. Stratmann, 
 O. Yazyev, A. J. Austin, R. Cammi, C. Pomelli, J. W. Ochterski, 
 R. L. Martin, K. Morokuma, V. G. Zakrzewski, G. A. Voth, 
 P. Salvador, J. J. Dannenberg, S. Dapprich, A. D. Daniels, 
 O. Farkas, J. B. Foresman, J. V. Ortiz, J. Cioslowski, 
 and D. J. Fox, Gaussian, Inc., Wallingford CT, 2010.
 
 ******************************************
 Gaussian 09:  EM64L-G09RevB.01 12-Aug-2010
                 6-Jun-2012 
 ******************************************
 %chk=/home/hmayes/gaussian/pucker/chks/1HO00.chk
 %mem=10GB
 %nproc=8
 Will use up to    8 processors via shared memory.
 Default route:  MaxDisk=16GB
 -------------------------
 # opt freq m062x/6-31G(d)
 -------------------------
 1/14=-1,18=20,19=15,26=3,38=1/1,3;
 2/9=110,12=2,17=6,18=5,40=1/2;
 3/5=1,6=6,7=1,11=2,16=1,25=1,30=1,71=1,74=-55/1,2,3;
 4//1;
 5/5=2,38=5/2;
 6/7=2,8=2,9=2,10=2,28=1/1;
 7//1,2,3,16;
 1/14=-1,18=20,19=15/3(2);
 2/9=110/2;
 99//99;
 2/9=110/2;
 3/5=1,6=6,7=1,11=2,16=1,25=1,30=1,71=1,74=-55/1,2,3;
 4/5=5,16=3/1;
 5/5=2,38=5/2;
 7//1,2,3,16;
 1/14=-1,18=20,19=15/3(-5);
 2/9=110/2;
 6/7=2,8=2,9=2,10=2,19=2,28=1/1;
 99/9=1/99;
 ---------------------------------------
 from http://6ring.bio.nrc.ca/suppl.html
 ---------------------------------------
 Symbolic Z-matrix:
 Charge =  0 Multiplicity = 1
 C                     1.323    -0.021    -0.276 
 C                     0.718     1.179     0.117 
 C                    -0.681     1.198     0.059 
 C                    -1.378    -0.01     -0.059 
 C                    -0.662    -1.211    -0.117 
 O                     0.68     -1.135     0.276 
 H                    -1.1639   -1.9347    0.5354 
 H                    -0.6904   -1.5709   -1.1518 
 H                    -1.9727    0.0524   -0.9775 
 H                    -2.0477   -0.0785    0.8059 
 H                    -1.0326    1.6816    0.9775 
 H                    -0.9569    1.8121   -0.8058 
 H                     1.0155    1.3837    1.1518 
 H                     1.0935    1.9756   -0.5355 
 H                     2.3681   -0.0156    0.054 
 H                     1.2853   -0.0955   -1.3688 
 

 GradGradGradGradGradGradGradGradGradGradGradGradGradGradGradGradGradGrad
 Berny optimization.
 Initialization pass.
                           ----------------------------
                           !    Initial Parameters    !
                           ! (Angstroms and Degrees)  !
 --------------------------                            --------------------------
 ! Name  Definition              Value          Derivative Info.                !
 --------------------------------------------------------------------------------
 ! R1    R(1,2)                  1.4002         estimate D2E/DX2                !
 ! R2    R(1,6)                  1.3997         estimate D2E/DX2                !
 ! R3    R(1,15)                 1.096          estimate D2E/DX2                !
 ! R4    R(1,16)                 1.096          estimate D2E/DX2                !
 ! R5    R(2,3)                  1.4003         estimate D2E/DX2                !
 ! R6    R(2,13)                 1.096          estimate D2E/DX2                !
 ! R7    R(2,14)                 1.0961         estimate D2E/DX2                !
 ! R8    R(3,4)                  1.3996         estimate D2E/DX2                !
 ! R9    R(3,11)                 1.096          estimate D2E/DX2                !
 ! R10   R(3,12)                 1.096          estimate D2E/DX2                !
 ! R11   R(4,5)                  1.3994         estimate D2E/DX2                !
 ! R12   R(4,9)                  1.096          estimate D2E/DX2                !
 ! R13   R(4,10)                 1.096          estimate D2E/DX2                !
 ! R14   R(5,6)                  1.4004         estimate D2E/DX2                !
 ! R15   R(5,7)                  1.096          estimate D2E/DX2                !
 ! R16   R(5,8)                  1.096          estimate D2E/DX2                !
 ! A1    A(2,1,6)              111.8957         estimate D2E/DX2                !
 ! A2    A(2,1,15)             108.8624         estimate D2E/DX2                !
 ! A3    A(2,1,16)             108.8601         estimate D2E/DX2                !
 ! A4    A(6,1,15)             108.8587         estimate D2E/DX2                !
 ! A5    A(6,1,16)             108.864          estimate D2E/DX2                !
 ! A6    A(15,1,16)            109.473          estimate D2E/DX2                !
 ! A7    A(1,2,3)              115.5744         estimate D2E/DX2                !
 ! A8    A(1,2,13)             107.926          estimate D2E/DX2                !
 ! A9    A(1,2,14)             107.9244         estimate D2E/DX2                !
 ! A10   A(3,2,13)             107.924          estimate D2E/DX2                !
 ! A11   A(3,2,14)             107.9236         estimate D2E/DX2                !
 ! A12   A(13,2,14)            109.4716         estimate D2E/DX2                !
 ! A13   A(2,3,4)              119.2941         estimate D2E/DX2                !
 ! A14   A(2,3,11)             106.9648         estimate D2E/DX2                !
 ! A15   A(2,3,12)             106.9652         estimate D2E/DX2                !
 ! A16   A(4,3,11)             106.9618         estimate D2E/DX2                !
 ! A17   A(4,3,12)             106.961          estimate D2E/DX2                !
 ! A18   A(11,3,12)            109.4691         estimate D2E/DX2                !
 ! A19   A(3,4,5)              119.3014         estimate D2E/DX2                !
 ! A20   A(3,4,9)              106.9614         estimate D2E/DX2                !
 ! A21   A(3,4,10)             106.9596         estimate D2E/DX2                !
 ! A22   A(5,4,9)              106.9626         estimate D2E/DX2                !
 ! A23   A(5,4,10)             106.9594         estimate D2E/DX2                !
 ! A24   A(9,4,10)             109.4716         estimate D2E/DX2                !
 ! A25   A(4,5,6)              115.5999         estimate D2E/DX2                !
 ! A26   A(4,5,7)              107.921          estimate D2E/DX2                !
 ! A27   A(4,5,8)              107.9204         estimate D2E/DX2                !
 ! A28   A(6,5,7)              107.9155         estimate D2E/DX2                !
 ! A29   A(6,5,8)              107.9159         estimate D2E/DX2                !
 ! A30   A(7,5,8)              109.4706         estimate D2E/DX2                !
 ! A31   A(1,6,5)              111.8847         estimate D2E/DX2                !
 ! D1    D(6,1,2,3)            -44.905          estimate D2E/DX2                !
 ! D2    D(6,1,2,13)            75.9858         estimate D2E/DX2                !
 ! D3    D(6,1,2,14)          -165.7943         estimate D2E/DX2                !
 ! D4    D(15,1,2,3)          -165.266          estimate D2E/DX2                !
 ! D5    D(15,1,2,13)          -44.3751         estimate D2E/DX2                !
 ! D6    D(15,1,2,14)           73.8448         estimate D2E/DX2                !
 ! D7    D(16,1,2,3)            75.4609         estimate D2E/DX2                !
 ! D8    D(16,1,2,13)         -163.6482         estimate D2E/DX2                !
 ! D9    D(16,1,2,14)          -45.4283         estimate D2E/DX2                !
 ! D10   D(2,1,6,5)             60.2081         estimate D2E/DX2                !
 ! D11   D(15,1,6,5)          -179.4288         estimate D2E/DX2                !
 ! D12   D(16,1,6,5)           -60.1556         estimate D2E/DX2                !
 ! D13   D(1,2,3,4)             15.1313         estimate D2E/DX2                !
 ! D14   D(1,2,3,11)           136.5226         estimate D2E/DX2                !
 ! D15   D(1,2,3,12)          -106.2593         estimate D2E/DX2                !
 ! D16   D(13,2,3,4)          -105.7607         estimate D2E/DX2                !
 ! D17   D(13,2,3,11)           15.6306         estimate D2E/DX2                !
 ! D18   D(13,2,3,12)          132.8488         estimate D2E/DX2                !
 ! D19   D(14,2,3,4)           136.021          estimate D2E/DX2                !
 ! D20   D(14,2,3,11)         -102.5877         estimate D2E/DX2                !
 ! D21   D(14,2,3,12)           14.6304         estimate D2E/DX2                !
 ! D22   D(2,3,4,5)             -0.0233         estimate D2E/DX2                !
 ! D23   D(2,3,4,9)           -121.4179         estimate D2E/DX2                !
 ! D24   D(2,3,4,10)           121.3656         estimate D2E/DX2                !
 ! D25   D(11,3,4,5)          -121.4161         estimate D2E/DX2                !
 ! D26   D(11,3,4,9)           117.1893         estimate D2E/DX2                !
 ! D27   D(11,3,4,10)           -0.0272         estimate D2E/DX2                !
 ! D28   D(12,3,4,5)           121.3694         estimate D2E/DX2                !
 ! D29   D(12,3,4,9)            -0.0252         estimate D2E/DX2                !
 ! D30   D(12,3,4,10)         -117.2417         estimate D2E/DX2                !
 ! D31   D(3,4,5,6)             15.1349         estimate D2E/DX2                !
 ! D32   D(3,4,5,7)            136.028          estimate D2E/DX2                !
 ! D33   D(3,4,5,8)           -105.7582         estimate D2E/DX2                !
 ! D34   D(9,4,5,6)            136.5289         estimate D2E/DX2                !
 ! D35   D(9,4,5,7)           -102.5779         estimate D2E/DX2                !
 ! D36   D(9,4,5,8)             15.6359         estimate D2E/DX2                !
 ! D37   D(10,4,5,6)          -106.254          estimate D2E/DX2                !
 ! D38   D(10,4,5,7)            14.6391         estimate D2E/DX2                !
 ! D39   D(10,4,5,8)           132.8529         estimate D2E/DX2                !
 ! D40   D(4,5,6,1)            -44.9062         estimate D2E/DX2                !
 ! D41   D(7,5,6,1)           -165.8022         estimate D2E/DX2                !
 ! D42   D(8,5,6,1)             75.9894         estimate D2E/DX2                !
 --------------------------------------------------------------------------------
 Trust Radius=3.00D-01 FncErr=1.00D-07 GrdErr=1.00D-06
 Number of steps in this run=     99 maximum allowed number of steps=    100.
 GradGradGradGradGradGradGradGradGradGradGradGradGradGradGradGradGradGrad

                          Input orientation:                          
 ---------------------------------------------------------------------
 Center     Atomic      Atomic             Coordinates (Angstroms)
 Number     Number       Type             X           Y           Z
 ---------------------------------------------------------------------
      1          6           0        1.323000   -0.021000   -0.276000
      2          6           0        0.718000    1.179000    0.117000
      3          6           0       -0.681000    1.198000    0.059000
      4          6           0       -1.378000   -0.010000   -0.059000
      5          6           0       -0.662000   -1.211000   -0.117000
      6          8           0        0.680000   -1.135000    0.276000
      7          1           0       -1.163900   -1.934700    0.535400
      8          1           0       -0.690400   -1.570900   -1.151800
      9          1           0       -1.972700    0.052400   -0.977500
     10          1           0       -2.047700   -0.078500    0.805900
     11          1           0       -1.032600    1.681600    0.977500
     12          1           0       -0.956900    1.812100   -0.805800
     13          1           0        1.015500    1.383700    1.151800
     14          1           0        1.093500    1.975600   -0.535500
     15          1           0        2.368100   -0.015600    0.054000
     16          1           0        1.285300   -0.095500   -1.368800
 ---------------------------------------------------------------------
                    Distance matrix (angstroms):
                    1          2          3          4          5
     1  C    0.000000
     2  C    1.400169   0.000000
     3  C    2.369431   1.400331   0.000000
     4  C    2.709725   2.416177   1.399642   0.000000
     5  C    2.319829   2.769703   2.415495   1.399436   0.000000
     6  O    1.399696   2.319767   2.709668   2.369222   1.400425
     7  H    3.241186   3.662203   3.205302   2.025739   1.096025
     8  H    2.687563   3.339969   3.022074   2.025689   1.095968
     9  H    3.370331   3.115610   2.013758   1.095995   2.013597
    10  H    3.540541   3.115283   2.013748   1.096012   2.013570
    11  H    3.165274   2.014365   1.095962   2.013739   3.114869
    12  H    2.973027   2.014365   1.095956   2.013724   3.114570
    13  H    2.026413   1.096002   2.026526   3.022793   3.340109
    14  H    2.026431   1.096051   2.026559   3.205928   3.662150
    15  H    1.095976   2.038104   3.281747   3.747808   3.261860
    16  H    1.095985   2.038083   2.752833   2.969184   2.569693
                    6          7          8          9         10
     6  O    0.000000
     7  H    2.026518   0.000000
     8  H    2.026479   1.789748   0.000000
     9  H    3.165122   2.625184   2.076000   0.000000
    10  H    2.972765   2.073584   2.811069   1.789770   0.000000
    11  H    3.370213   3.645589   3.902535   2.712951   2.039075
    12  H    3.540499   3.984994   3.411074   2.039087   2.713262
    13  H    2.687645   4.017650   4.116592   3.903283   3.411872
    14  H    3.241195   4.640380   4.017435   3.646319   3.985702
    15  H    2.037651   4.048421   3.636940   4.462192   4.479799
    16  H    2.037723   3.606552   2.475335   3.284746   3.979761
                   11         12         13         14         15
    11  H    0.000000
    12  H    1.789670   0.000000
    13  H    2.076978   2.811776   0.000000
    14  H    2.626006   2.074593   1.789808   0.000000
    15  H    3.911279   3.890420   2.234442   2.436595   0.000000
    16  H    3.746447   2.997227   2.935004   2.240677   1.789748
                   16
    16  H    0.000000
 Stoichiometry    C5H10O
 Framework group  C1[X(C5H10O)]
 Deg. of freedom    42
 Full point group                 C1      NOp   1
 Largest Abelian subgroup         C1      NOp   1
 Largest concise Abelian subgroup C1      NOp   1
                         Standard orientation:                         
 ---------------------------------------------------------------------
 Center     Atomic      Atomic             Coordinates (Angstroms)
 Number     Number       Type             X           Y           Z
 ---------------------------------------------------------------------
      1          6           0       -1.047607   -0.837725    0.247992
      2          6           0       -1.281445    0.495993   -0.108365
      3          6           0       -0.169469    1.344254   -0.038442
      4          6           0        1.111566    0.787926    0.053462
      5          6           0        1.253862   -0.604105    0.074012
      6          8           0        0.127910   -1.333455   -0.327821
      7          1           0        2.082408   -0.868304   -0.593058
      8          1           0        1.500770   -0.902749    1.099192
      9          1           0        1.560000    1.168871    0.978120
     10          1           0        1.682015    1.154931   -0.807431
     11          1           0       -0.184132    1.965783   -0.941005
     12          1           0       -0.306471    1.978987    0.844430
     13          1           0       -1.651745    0.509616   -1.139826
     14          1           0       -2.052031    0.894068    0.561755
     15          1           0       -1.892591   -1.448240   -0.090292
     16          1           0       -0.962948   -0.903386    1.338728
 ---------------------------------------------------------------------
 Rotational constants (GHZ):      5.0495583      4.9600260      2.8053770
 Standard basis: 6-31G(d) (6D, 7F)
 There are   110 symmetry adapted basis functions of A   symmetry.
 Integral buffers will be    131072 words long.
 Raffenetti 2 integral format.
 Two-electron integral symmetry is turned on.
   110 basis functions,   208 primitive gaussians,   110 cartesian basis functions
    24 alpha electrons       24 beta electrons
       nuclear repulsion energy       270.7919071140 Hartrees.
 NAtoms=   16 NActive=   16 NUniq=   16 SFac= 1.00D+00 NAtFMM=   50 NAOKFM=F Big=F
 One-electron integrals computed using PRISM.
 NBasis=   110 RedAO= T  NBF=   110
 NBsUse=   110 1.00D-06 NBFU=   110
 Harris functional with IExCor= 1009 diagonalized for initial guess.
 ExpMin= 1.61D-01 ExpMax= 5.48D+03 ExpMxC= 8.25D+02 IAcc=1 IRadAn=         1 AccDes= 0.00D+00
 HarFok:  IExCor= 1009 AccDes= 0.00D+00 IRadAn=         1 IDoV= 1
 ScaDFX=  1.000000  1.000000  1.000000  1.000000
 FoFCou: FMM=F IPFlag=           0 FMFlag=      100000 FMFlg1=           0
         NFxFlg=           0 DoJE=T BraDBF=F KetDBF=T FulRan=T
         Omega=  0.000000  0.000000  1.000000  0.000000  0.000000 ICntrl=     500 IOpCl=  0
         NMat0=    1 NMatS0=    1 NMatT0=    0 NMatD0=    1 NMtDS0=    0 NMtDT0=    0
         I1Cent=           4 NGrid=           0.
 Petite list used in FoFCou.
 Initial guess orbital symmetries:
       Occupied  (A) (A) (A) (A) (A) (A) (A) (A) (A) (A) (A) (A)
                 (A) (A) (A) (A) (A) (A) (A) (A) (A) (A) (A) (A)
       Virtual   (A) (A) (A) (A) (A) (A) (A) (A) (A) (A) (A) (A)
                 (A) (A) (A) (A) (A) (A) (A) (A) (A) (A) (A) (A)
                 (A) (A) (A) (A) (A) (A) (A) (A) (A) (A) (A) (A)
                 (A) (A) (A) (A) (A) (A) (A) (A) (A) (A) (A) (A)
                 (A) (A) (A) (A) (A) (A) (A) (A) (A) (A) (A) (A)
                 (A) (A) (A) (A) (A) (A) (A) (A) (A) (A) (A) (A)
                 (A) (A) (A) (A) (A) (A) (A) (A) (A) (A) (A) (A)
                 (A) (A)
 The electronic state of the initial guess is 1-A.
 Requested convergence on RMS density matrix=1.00D-08 within 128 cycles.
 Requested convergence on MAX density matrix=1.00D-06.
 Requested convergence on             energy=1.00D-06.
 No special actions if energy rises.
 Keep R1 ints in memory in canonical form, NReq=19758414.
 Integral accuracy reduced to 1.0D-05 until final iterations.
 Initial convergence to 1.0D-05 achieved.  Increase integral accuracy.
 SCF Done:  E(RM062X) =  -271.557199511     A.U. after   14 cycles
             Convg  =    0.4025D-08             -V/T =  2.0036

 **********************************************************************

            Population analysis using the SCF density.

 **********************************************************************

 Orbital symmetries:
       Occupied  (A) (A) (A) (A) (A) (A) (A) (A) (A) (A) (A) (A)
                 (A) (A) (A) (A) (A) (A) (A) (A) (A) (A) (A) (A)
       Virtual   (A) (A) (A) (A) (A) (A) (A) (A) (A) (A) (A) (A)
                 (A) (A) (A) (A) (A) (A) (A) (A) (A) (A) (A) (A)
                 (A) (A) (A) (A) (A) (A) (A) (A) (A) (A) (A) (A)
                 (A) (A) (A) (A) (A) (A) (A) (A) (A) (A) (A) (A)
                 (A) (A) (A) (A) (A) (A) (A) (A) (A) (A) (A) (A)
                 (A) (A) (A) (A) (A) (A) (A) (A) (A) (A) (A) (A)
                 (A) (A) (A) (A) (A) (A) (A) (A) (A) (A) (A) (A)
                 (A) (A)
 The electronic state is 1-A.
 Alpha  occ. eigenvalues --  -19.62466 -10.57146 -10.57011 -10.51997 -10.51751
 Alpha  occ. eigenvalues --  -10.51695  -1.15970  -0.94163  -0.88973  -0.75625
 Alpha  occ. eigenvalues --   -0.72776  -0.61850  -0.58577  -0.56152  -0.55468
 Alpha  occ. eigenvalues --   -0.51285  -0.50589  -0.45758  -0.43769  -0.41287
 Alpha  occ. eigenvalues --   -0.38736  -0.37283  -0.33599  -0.30596
 Alpha virt. eigenvalues --    0.09937   0.11916   0.16102   0.18494   0.19092
 Alpha virt. eigenvalues --    0.19463   0.22496   0.24109   0.26455   0.27620
 Alpha virt. eigenvalues --    0.29342   0.31495   0.33327   0.33834   0.40522
 Alpha virt. eigenvalues --    0.46592   0.54374   0.58010   0.60533   0.61366
 Alpha virt. eigenvalues --    0.64181   0.64301   0.65271   0.75180   0.78134
 Alpha virt. eigenvalues --    0.78181   0.80436   0.82536   0.85961   0.88666
 Alpha virt. eigenvalues --    0.89776   0.91456   0.92826   0.93388   0.94256
 Alpha virt. eigenvalues --    0.96762   0.97600   1.00112   1.01443   1.04156
 Alpha virt. eigenvalues --    1.05731   1.06871   1.19510   1.24127   1.25008
 Alpha virt. eigenvalues --    1.38161   1.42329   1.45913   1.54266   1.62036
 Alpha virt. eigenvalues --    1.67370   1.74983   1.84064   1.84781   1.89850
 Alpha virt. eigenvalues --    1.99074   1.99908   2.04007   2.05889   2.07051
 Alpha virt. eigenvalues --    2.10366   2.15446   2.16603   2.24838   2.27844
 Alpha virt. eigenvalues --    2.28870   2.35088   2.40929   2.44923   2.45289
 Alpha virt. eigenvalues --    2.48354   2.53636   2.55977   2.66875   2.75917
 Alpha virt. eigenvalues --    2.79738   2.82865   2.90078   3.02909   3.09391
 Alpha virt. eigenvalues --    4.02619   4.28734   4.31623   4.41982   4.52339
 Alpha virt. eigenvalues --    4.69297
          Condensed to atoms (all electrons):
              1          2          3          4          5          6
     1  C    4.842491   0.364217  -0.052110  -0.021707  -0.044334   0.256470
     2  C    0.364217   5.153839   0.356732  -0.053824  -0.025378  -0.054635
     3  C   -0.052110   0.356732   5.094684   0.350403  -0.049549  -0.018174
     4  C   -0.021707  -0.053824   0.350403   5.221172   0.323684  -0.046715
     5  C   -0.044334  -0.025378  -0.049549   0.323684   4.830916   0.263120
     6  O    0.256470  -0.054635  -0.018174  -0.046715   0.263120   8.265009
     7  H    0.006063  -0.000491   0.005750  -0.051501   0.407909  -0.036244
     8  H   -0.008780   0.000706  -0.000156  -0.078795   0.395739  -0.052598
     9  H    0.000596   0.004548  -0.044881   0.395036  -0.041520   0.003887
    10  H   -0.000303   0.006177  -0.049624   0.399339  -0.046088   0.002716
    11  H    0.005687  -0.045781   0.414025  -0.049292   0.003651  -0.000099
    12  H    0.002524  -0.051583   0.405665  -0.053715   0.005855  -0.000304
    13  H   -0.043902   0.391056  -0.055963   0.003060   0.001138   0.001181
    14  H   -0.037991   0.380561  -0.046893   0.007383   0.000062   0.004818
    15  H    0.401950  -0.048356   0.008051  -0.000220   0.005398  -0.033703
    16  H    0.374400  -0.073626  -0.007777  -0.001996  -0.003722  -0.052466
              7          8          9         10         11         12
     1  C    0.006063  -0.008780   0.000596  -0.000303   0.005687   0.002524
     2  C   -0.000491   0.000706   0.004548   0.006177  -0.045781  -0.051583
     3  C    0.005750  -0.000156  -0.044881  -0.049624   0.414025   0.405665
     4  C   -0.051501  -0.078795   0.395036   0.399339  -0.049292  -0.053715
     5  C    0.407909   0.395739  -0.041520  -0.046088   0.003651   0.005855
     6  O   -0.036244  -0.052598   0.003887   0.002716  -0.000099  -0.000304
     7  H    0.559423  -0.037202   0.004534  -0.020113  -0.000048  -0.000288
     8  H   -0.037202   0.647085  -0.014652   0.008752  -0.000431   0.000557
     9  H    0.004534  -0.014652   0.571186  -0.025264   0.004551  -0.023154
    10  H   -0.020113   0.008752  -0.025264   0.578118  -0.022807   0.006146
    11  H   -0.000048  -0.000431   0.004551  -0.022807   0.564866  -0.024259
    12  H   -0.000288   0.000557  -0.023154   0.006146  -0.024259   0.587619
    13  H   -0.000083   0.000214  -0.000320   0.000362  -0.019064   0.007697
    14  H    0.000027   0.000125   0.000028  -0.000228   0.001925  -0.020509
    15  H   -0.000113  -0.000218   0.000039   0.000006  -0.000261  -0.000275
    16  H   -0.000454   0.014626  -0.000368   0.000247  -0.000426   0.002798
             13         14         15         16
     1  C   -0.043902  -0.037991   0.401950   0.374400
     2  C    0.391056   0.380561  -0.048356  -0.073626
     3  C   -0.055963  -0.046893   0.008051  -0.007777
     4  C    0.003060   0.007383  -0.000220  -0.001996
     5  C    0.001138   0.000062   0.005398  -0.003722
     6  O    0.001181   0.004818  -0.033703  -0.052466
     7  H   -0.000083   0.000027  -0.000113  -0.000454
     8  H    0.000214   0.000125  -0.000218   0.014626
     9  H   -0.000320   0.000028   0.000039  -0.000368
    10  H    0.000362  -0.000228   0.000006   0.000247
    11  H   -0.019064   0.001925  -0.000261  -0.000426
    12  H    0.007697  -0.020509  -0.000275   0.002798
    13  H    0.586260  -0.023733  -0.013668   0.009718
    14  H   -0.023733   0.582428   0.000215  -0.004257
    15  H   -0.013668   0.000215   0.550849  -0.035423
    16  H    0.009718  -0.004257  -0.035423   0.664639
 Mulliken atomic charges:
              1
     1  C   -0.045269
     2  C   -0.304163
     3  C   -0.310183
     4  C   -0.342311
     5  C   -0.026880
     6  O   -0.502262
     7  H    0.162832
     8  H    0.125029
     9  H    0.165753
    10  H    0.162562
    11  H    0.167763
    12  H    0.155226
    13  H    0.156046
    14  H    0.156038
    15  H    0.165730
    16  H    0.114088
 Sum of Mulliken atomic charges =   0.00000
 Mulliken charges with hydrogens summed into heavy atoms:
              1
     1  C    0.234549
     2  C    0.007921
     3  C    0.012807
     4  C   -0.013996
     5  C    0.260981
     6  O   -0.502262
 Sum of Mulliken charges with hydrogens summed into heavy atoms =   0.00000
 Electronic spatial extent (au):  <R**2>=            511.0749
 Charge=              0.0000 electrons
 Dipole moment (field-independent basis, Debye):
    X=             -0.1064    Y=              1.5183    Z=              0.5960  Tot=              1.6345
 Quadrupole moment (field-independent basis, Debye-Ang):
   XX=            -35.8392   YY=            -41.5993   ZZ=            -37.2132
   XY=              0.7033   XZ=             -0.3710   YZ=             -0.7841
 Traceless Quadrupole moment (field-independent basis, Debye-Ang):
   XX=              2.3781   YY=             -3.3820   ZZ=              1.0040
   XY=              0.7033   XZ=             -0.3710   YZ=             -0.7841
 Octapole moment (field-independent basis, Debye-Ang**2):
  XXX=              0.9762  YYY=             -0.8044  ZZZ=             -1.4937  XYY=             -1.5688
  XXY=             -4.7595  XXZ=             -1.5929  XZZ=              0.8000  YZZ=              0.7959
  YYZ=              0.6579  XYZ=             -0.4827
 Hexadecapole moment (field-independent basis, Debye-Ang**3):
 XXXX=           -311.1103 YYYY=           -297.7894 ZZZZ=            -78.6013 XXXY=              0.3709
 XXXZ=             -4.0073 YYYX=              2.3723 YYYZ=              0.4021 ZZZX=              0.2929
 ZZZY=              1.2583 XXYY=            -97.8027 XXZZ=            -62.6438 YYZZ=            -58.8334
 XXYZ=              3.5382 YYXZ=             -0.1939 ZZXY=             -0.2425
 N-N= 2.707919071140D+02 E-N=-1.173829063762D+03  KE= 2.705769938688D+02
 Calling FoFJK, ICntrl=      2127 FMM=F ISym2X=0 I1Cent= 0 IOpClX= 0 NMat=1 NMatS=1 NMatT=0.
 ***** Axes restored to original set *****
 -------------------------------------------------------------------
 Center     Atomic                   Forces (Hartrees/Bohr)
 Number     Number              X              Y              Z
 -------------------------------------------------------------------
      1        6           0.037647042   -0.062463227   -0.029966358
      2        6           0.063619876    0.073580471    0.035449509
      3        6          -0.049015403    0.097013603   -0.001176138
      4        6          -0.107098749   -0.006346699    0.003635702
      5        6           0.041013710   -0.082498110   -0.014140273
      6        8           0.010035438   -0.009541214    0.021302291
      7        1           0.009253283   -0.008377730   -0.005527617
      8        1           0.003626000   -0.010906520   -0.003300852
      9        1          -0.011617941   -0.004250533    0.008109206
     10        1          -0.009470668    0.000204742   -0.006797208
     11        1          -0.003770969    0.011782552   -0.009162826
     12        1          -0.005434103    0.008767749    0.006785498
     13        1           0.007729534    0.003919412   -0.000736228
     14        1           0.009199376    0.003936121    0.008970322
     15        1          -0.000005810   -0.009139218   -0.004748225
     16        1           0.004289385   -0.005681400   -0.008696803
 -------------------------------------------------------------------
 Cartesian Forces:  Max     0.107098749 RMS     0.032650315

 GradGradGradGradGradGradGradGradGradGradGradGradGradGradGradGradGradGrad
 Berny optimization.
 Internal  Forces:  Max     0.124202204 RMS     0.025655394
 Search for a local minimum.
 Step number   1 out of a maximum of   99
 All quantities printed in internal units (Hartrees-Bohrs-Radians)
 Mixed Optimization -- RFO/linear search
 Second derivative matrix not updated -- first step.
 ITU=  0
     Eigenvalues ---    0.02087   0.02105   0.02367   0.03772   0.03920
     Eigenvalues ---    0.04606   0.05335   0.05845   0.06074   0.06202
     Eigenvalues ---    0.06405   0.07180   0.07284   0.09231   0.09499
     Eigenvalues ---    0.10040   0.10043   0.10610   0.11626   0.11833
     Eigenvalues ---    0.12023   0.13169   0.13733   0.19304   0.19905
     Eigenvalues ---    0.22199   0.34123   0.34126   0.34127   0.34128
     Eigenvalues ---    0.34129   0.34130   0.34131   0.34132   0.34133
     Eigenvalues ---    0.34133   0.41196   0.41284   0.43989   0.45565
     Eigenvalues ---    0.45649   0.45677
 RFO step:  Lambda=-1.10268104D-01 EMin= 2.08685470D-02
 Linear search not attempted -- first point.
 Maximum step size (   0.300) exceeded in Quadratic search.
    -- Step size scaled by   0.668
 Iteration  1 RMS(Cart)=  0.05933672 RMS(Int)=  0.00068394
 Iteration  2 RMS(Cart)=  0.00070319 RMS(Int)=  0.00027912
 Iteration  3 RMS(Cart)=  0.00000034 RMS(Int)=  0.00027912
 Variable       Old X    -DE/DX   Delta X   Delta X   Delta X     New X
                                 (Linear)    (Quad)   (Total)
    R1        2.64594   0.10121   0.00000   0.11845   0.11838   2.76431
    R2        2.64504   0.01731   0.00000   0.01431   0.01381   2.65885
    R3        2.07109  -0.00148   0.00000  -0.00219  -0.00219   2.06890
    R4        2.07111   0.00891   0.00000   0.01318   0.01318   2.08429
    R5        2.64624   0.11716   0.00000   0.14296   0.14338   2.78963
    R6        2.07114   0.00215   0.00000   0.00317   0.00317   2.07432
    R7        2.07124   0.00066   0.00000   0.00098   0.00098   2.07221
    R8        2.64494   0.12420   0.00000   0.15202   0.15251   2.79745
    R9        2.07107  -0.00127   0.00000  -0.00187  -0.00187   2.06920
   R10        2.07106   0.00092   0.00000   0.00136   0.00136   2.07242
   R11        2.64455   0.12118   0.00000   0.14356   0.14359   2.78814
   R12        2.07113  -0.00073   0.00000  -0.00108  -0.00108   2.07005
   R13        2.07116   0.00041   0.00000   0.00060   0.00060   2.07177
   R14        2.64642   0.01795   0.00000   0.01680   0.01638   2.66280
   R15        2.07119  -0.00200   0.00000  -0.00296  -0.00296   2.06823
   R16        2.07108   0.00661   0.00000   0.00978   0.00978   2.08086
    A1        1.95295   0.01393   0.00000   0.01465   0.01398   1.96692
    A2        1.90001   0.00095   0.00000   0.01349   0.01381   1.91382
    A3        1.89997   0.00666   0.00000   0.02183   0.02169   1.92166
    A4        1.89994  -0.01075   0.00000  -0.02712  -0.02706   1.87289
    A5        1.90003  -0.00675   0.00000  -0.00699  -0.00713   1.89291
    A6        1.91066  -0.00433   0.00000  -0.01658  -0.01696   1.89371
    A7        2.01715  -0.00565   0.00000  -0.01053  -0.01024   2.00692
    A8        1.88366  -0.00071   0.00000  -0.00268  -0.00267   1.88099
    A9        1.88364   0.00072   0.00000  -0.00084  -0.00092   1.88272
   A10        1.88363   0.00504   0.00000   0.01655   0.01649   1.90012
   A11        1.88362   0.00634   0.00000   0.01693   0.01680   1.90042
   A12        1.91064  -0.00613   0.00000  -0.02093  -0.02102   1.88962
   A13        2.08208  -0.02316   0.00000  -0.02987  -0.02875   2.05333
   A14        1.86689   0.00467   0.00000   0.00758   0.00752   1.87441
   A15        1.86689   0.01060   0.00000   0.01674   0.01648   1.88337
   A16        1.86684   0.00987   0.00000   0.01675   0.01644   1.88328
   A17        1.86682   0.00804   0.00000   0.01593   0.01581   1.88263
   A18        1.91060  -0.01047   0.00000  -0.03000  -0.02994   1.88065
   A19        2.08220  -0.01484   0.00000  -0.02004  -0.01942   2.06279
   A20        1.86683   0.01015   0.00000   0.01861   0.01834   1.88517
   A21        1.86680   0.00388   0.00000   0.01158   0.01159   1.87839
   A22        1.86685   0.00080   0.00000   0.00085   0.00090   1.86775
   A23        1.86679   0.00835   0.00000   0.01388   0.01368   1.88048
   A24        1.91064  -0.00895   0.00000  -0.02787  -0.02784   1.88280
   A25        2.01760   0.01233   0.00000   0.01357   0.01297   2.03057
   A26        1.88358   0.00621   0.00000   0.02440   0.02456   1.90814
   A27        1.88357   0.00769   0.00000   0.02696   0.02689   1.91045
   A28        1.88348  -0.01042   0.00000  -0.02870  -0.02883   1.85465
   A29        1.88349  -0.01017   0.00000  -0.01582  -0.01589   1.86759
   A30        1.91062  -0.00654   0.00000  -0.02273  -0.02341   1.88721
   A31        1.95276   0.01791   0.00000   0.01616   0.01516   1.96791
    D1       -0.78374  -0.00246   0.00000  -0.01462  -0.01475  -0.79849
    D2        1.32620  -0.00022   0.00000  -0.00225  -0.00228   1.32392
    D3       -2.89366  -0.00745   0.00000  -0.02888  -0.02894  -2.92259
    D4       -2.88444   0.00154   0.00000   0.00102   0.00098  -2.88346
    D5       -0.77449   0.00379   0.00000   0.01339   0.01345  -0.76104
    D6        1.28884  -0.00345   0.00000  -0.01324  -0.01320   1.27563
    D7        1.31704   0.00234   0.00000   0.00043   0.00033   1.31737
    D8       -2.85620   0.00458   0.00000   0.01281   0.01281  -2.84339
    D9       -0.79287  -0.00266   0.00000  -0.01383  -0.01385  -0.80672
   D10        1.05083   0.01104   0.00000   0.03080   0.03049   1.08132
   D11       -3.13162   0.01386   0.00000   0.03884   0.03829  -3.09333
   D12       -1.04991  -0.00158   0.00000  -0.00107  -0.00092  -1.05083
   D13        0.26409   0.00040   0.00000   0.00576   0.00581   0.26990
   D14        2.38277   0.00138   0.00000   0.01376   0.01393   2.39670
   D15       -1.85457  -0.00313   0.00000  -0.00885  -0.00879  -1.86336
   D16       -1.84587   0.00126   0.00000   0.00378   0.00377  -1.84210
   D17        0.27281   0.00224   0.00000   0.01178   0.01189   0.28470
   D18        2.31865  -0.00226   0.00000  -0.01083  -0.01083   2.30782
   D19        2.37401   0.00235   0.00000   0.01042   0.01036   2.38437
   D20       -1.79049   0.00333   0.00000   0.01841   0.01848  -1.77201
   D21        0.25535  -0.00118   0.00000  -0.00420  -0.00424   0.25111
   D22       -0.00041  -0.00614   0.00000  -0.01302  -0.01284  -0.01325
   D23       -2.11914  -0.00539   0.00000  -0.01584  -0.01570  -2.13484
   D24        2.11823  -0.00203   0.00000   0.00137   0.00152   2.11975
   D25       -2.11911  -0.00452   0.00000  -0.01644  -0.01638  -2.13549
   D26        2.04534  -0.00378   0.00000  -0.01926  -0.01923   2.02611
   D27       -0.00047  -0.00041   0.00000  -0.00205  -0.00201  -0.00249
   D28        2.11830  -0.00133   0.00000   0.00199   0.00210   2.12039
   D29       -0.00044  -0.00059   0.00000  -0.00083  -0.00076  -0.00120
   D30       -2.04625   0.00278   0.00000   0.01638   0.01646  -2.02979
   D31        0.26415  -0.00104   0.00000   0.00952   0.00974   0.27390
   D32        2.37414  -0.00165   0.00000  -0.00021  -0.00022   2.37391
   D33       -1.84583  -0.00186   0.00000   0.00069   0.00080  -1.84503
   D34        2.38288   0.00289   0.00000   0.02122   0.02146   2.40434
   D35       -1.79032   0.00228   0.00000   0.01148   0.01150  -1.77883
   D36        0.27290   0.00206   0.00000   0.01238   0.01252   0.28541
   D37       -1.85448  -0.00292   0.00000  -0.00372  -0.00356  -1.85805
   D38        0.25550  -0.00353   0.00000  -0.01346  -0.01353   0.24197
   D39        2.31872  -0.00374   0.00000  -0.01256  -0.01251   2.30621
   D40       -0.78376  -0.00624   0.00000  -0.02347  -0.02333  -0.80709
   D41       -2.89379  -0.01461   0.00000  -0.04243  -0.04174  -2.93554
   D42        1.32626   0.00424   0.00000   0.00848   0.00812   1.33439
         Item               Value     Threshold  Converged?
 Maximum Force            0.124202     0.000450     NO 
 RMS     Force            0.025655     0.000300     NO 
 Maximum Displacement     0.172479     0.001800     NO 
 RMS     Displacement     0.059195     0.001200     NO 
 Predicted change in Energy=-5.452569D-02
 GradGradGradGradGradGradGradGradGradGradGradGradGradGradGradGradGradGrad

                          Input orientation:                          
 ---------------------------------------------------------------------
 Center     Atomic      Atomic             Coordinates (Angstroms)
 Number     Number       Type             X           Y           Z
 ---------------------------------------------------------------------
      1          6           0        1.348738   -0.044032   -0.284648
      2          6           0        0.752629    1.225766    0.130183
      3          6           0       -0.721338    1.273643    0.064503
      4          6           0       -1.445565   -0.011583   -0.058438
      5          6           0       -0.653279   -1.254464   -0.124749
      6          8           0        0.695158   -1.158374    0.272784
      7          1           0       -1.110268   -2.010280    0.521585
      8          1           0       -0.658178   -1.638017   -1.156921
      9          1           0       -2.055237    0.028789   -0.967628
     10          1           0       -2.124362   -0.093387    0.798583
     11          1           0       -1.073473    1.772872    0.973203
     12          1           0       -1.000611    1.900396   -0.791001
     13          1           0        1.068543    1.422714    1.162806
     14          1           0        1.162337    2.015285   -0.511115
     15          1           0        2.393733   -0.083540    0.039460
     16          1           0        1.319374   -0.135587   -1.383408
 ---------------------------------------------------------------------
                    Distance matrix (angstroms):
                    1          2          3          4          5
     1  C    0.000000
     2  C    1.462812   0.000000
     3  C    2.478586   1.476206   0.000000
     4  C    2.803632   2.529559   1.480346   0.000000
     5  C    2.344949   2.862361   2.536094   1.475420   0.000000
     6  O    1.407002   2.389092   2.822153   2.451026   1.409095
     7  H    3.250054   3.754408   3.338314   2.107994   1.094461
     8  H    2.707278   3.442131   3.158105   2.114693   1.101143
     9  H    3.472580   3.243771   2.096245   1.095425   2.079103
    10  H    3.638440   3.234810   2.091917   1.096331   2.089192
    11  H    3.278786   2.084384   1.094972   2.094520   3.247587
    12  H    3.091380   2.092260   1.096676   2.095303   3.243096
    13  H    2.079658   1.097680   2.105271   3.141558   3.433621
    14  H    2.080101   1.096569   2.104662   3.333806   3.759920
    15  H    1.094815   2.101365   3.397976   3.841219   3.268380
    16  H    1.102959   2.113159   2.871738   3.068519   2.593737
                    6          7          8          9         10
     6  O    0.000000
     7  H    2.011768   0.000000
     8  H    2.026236   1.777737   0.000000
     9  H    3.242322   2.696020   2.183082   0.000000
    10  H    3.059469   2.186227   2.891292   1.771780   0.000000
    11  H    3.494402   3.810190   4.042778   2.787922   2.148902
    12  H    3.655590   4.126535   3.573726   2.155538   2.786532
    13  H    2.755643   4.116288   4.210792   4.029861   3.553289
    14  H    3.302251   4.736705   4.132548   3.808852   4.118761
    15  H    2.023577   4.027753   3.627931   4.562913   4.581434
    16  H    2.044190   3.612013   2.493853   3.404100   4.077031
                   11         12         13         14         15
    11  H    0.000000
    12  H    1.770306   0.000000
    13  H    2.178714   2.885643   0.000000
    14  H    2.694590   2.184005   1.778187   0.000000
    15  H    4.042234   4.018362   2.299312   2.494901   0.000000
    16  H    3.862842   3.143008   2.995734   2.326328   1.783678
                   16
    16  H    0.000000
 Stoichiometry    C5H10O
 Framework group  C1[X(C5H10O)]
 Deg. of freedom    42
 Full point group                 C1      NOp   1
 Largest Abelian subgroup         C1      NOp   1
 Largest concise Abelian subgroup C1      NOp   1
                         Standard orientation:                         
 ---------------------------------------------------------------------
 Center     Atomic      Atomic             Coordinates (Angstroms)
 Number     Number       Type             X           Y           Z
 ---------------------------------------------------------------------
      1          6           0       -0.974072   -0.963711    0.254845
      2          6           0       -1.376943    0.394474   -0.109640
      3          6           0       -0.304317    1.405586   -0.030198
      4          6           0        1.091917    0.920766    0.052885
      5          6           0        1.324029   -0.536199    0.068429
      6          8           0        0.244127   -1.345766   -0.336492
      7          1           0        2.155853   -0.777652   -0.600610
      8          1           0        1.599980   -0.852885    1.086308
      9          1           0        1.537340    1.326084    0.967911
     10          1           0        1.639251    1.337199   -0.800901
     11          1           0       -0.387571    2.041573   -0.917640
     12          1           0       -0.495861    2.032043    0.849326
     13          1           0       -1.761979    0.365385   -1.137163
     14          1           0       -2.195809    0.692644    0.555954
     15          1           0       -1.735682   -1.675817   -0.079033
     16          1           0       -0.872225   -1.047944    1.349856
 ---------------------------------------------------------------------
 Rotational constants (GHZ):      4.7499263      4.6511610      2.6167653
 Standard basis: 6-31G(d) (6D, 7F)
 There are   110 symmetry adapted basis functions of A   symmetry.
 Integral buffers will be    131072 words long.
 Raffenetti 2 integral format.
 Two-electron integral symmetry is turned on.
   110 basis functions,   208 primitive gaussians,   110 cartesian basis functions
    24 alpha electrons       24 beta electrons
       nuclear repulsion energy       263.1504165435 Hartrees.
 NAtoms=   16 NActive=   16 NUniq=   16 SFac= 1.00D+00 NAtFMM=   50 NAOKFM=F Big=F
 One-electron integrals computed using PRISM.
 NBasis=   110 RedAO= T  NBF=   110
 NBsUse=   110 1.00D-06 NBFU=   110
 Initial guess read from the read-write file.
 B after Tr=     0.000000    0.000000    0.000000
         Rot=    1.000000    0.000000    0.000000    0.000000 Ang=   0.00 deg.
 Initial guess orbital symmetries:
       Occupied  (A) (A) (A) (A) (A) (A) (A) (A) (A) (A) (A) (A)
                 (A) (A) (A) (A) (A) (A) (A) (A) (A) (A) (A) (A)
       Virtual   (A) (A) (A) (A) (A) (A) (A) (A) (A) (A) (A) (A)
                 (A) (A) (A) (A) (A) (A) (A) (A) (A) (A) (A) (A)
                 (A) (A) (A) (A) (A) (A) (A) (A) (A) (A) (A) (A)
                 (A) (A) (A) (A) (A) (A) (A) (A) (A) (A) (A) (A)
                 (A) (A) (A) (A) (A) (A) (A) (A) (A) (A) (A) (A)
                 (A) (A) (A) (A) (A) (A) (A) (A) (A) (A) (A) (A)
                 (A) (A) (A) (A) (A) (A) (A) (A) (A) (A) (A) (A)
                 (A) (A)
 Harris functional with IExCor= 1009 diagonalized for initial guess.
 ExpMin= 1.61D-01 ExpMax= 5.48D+03 ExpMxC= 8.25D+02 IAcc=1 IRadAn=         1 AccDes= 0.00D+00
 HarFok:  IExCor= 1009 AccDes= 0.00D+00 IRadAn=         1 IDoV= 1
 ScaDFX=  1.000000  1.000000  1.000000  1.000000
 FoFCou: FMM=F IPFlag=           0 FMFlag=      100000 FMFlg1=           0
         NFxFlg=           0 DoJE=T BraDBF=F KetDBF=T FulRan=T
         Omega=  0.000000  0.000000  1.000000  0.000000  0.000000 ICntrl=     500 IOpCl=  0
         NMat0=    1 NMatS0=    1 NMatT0=    0 NMatD0=    1 NMtDS0=    0 NMtDT0=    0
         I1Cent=           4 NGrid=           0.
 Petite list used in FoFCou.
 Requested convergence on RMS density matrix=1.00D-08 within 128 cycles.
 Requested convergence on MAX density matrix=1.00D-06.
 Requested convergence on             energy=1.00D-06.
 No special actions if energy rises.
 Keep R1 ints in memory in canonical form, NReq=19758706.
 Integral accuracy reduced to 1.0D-05 until final iterations.
 Initial convergence to 1.0D-05 achieved.  Increase integral accuracy.
 SCF Done:  E(RM062X) =  -271.607242006     A.U. after   14 cycles
             Convg  =    0.5452D-08             -V/T =  2.0067
 Calling FoFJK, ICntrl=      2127 FMM=F ISym2X=0 I1Cent= 0 IOpClX= 0 NMat=1 NMatS=1 NMatT=0.
 ***** Axes restored to original set *****
 -------------------------------------------------------------------
 Center     Atomic                   Forces (Hartrees/Bohr)
 Number     Number              X              Y              Z
 -------------------------------------------------------------------
      1        6           0.011927181   -0.029812628   -0.018421673
      2        6           0.025459099    0.029391145    0.017420352
      3        6          -0.018119730    0.037340119   -0.003559456
      4        6          -0.041718001   -0.002965538    0.004567164
      5        6           0.021464724   -0.033420335   -0.011070528
      6        8           0.002954875    0.000963381    0.016902770
      7        1           0.003824557   -0.003072494   -0.002845276
      8        1          -0.000418292   -0.002901522   -0.001114014
      9        1          -0.005544000   -0.001771532    0.004847940
     10        1          -0.003626223   -0.000015706   -0.004256937
     11        1          -0.002243200    0.005335977   -0.005368254
     12        1          -0.002273380    0.002937721    0.004288360
     13        1           0.002679907    0.001456760   -0.001812263
     14        1           0.004155007    0.001823433    0.005668874
     15        1          -0.000430204   -0.004244110   -0.002486757
     16        1           0.001907679   -0.001044671   -0.002760299
 -------------------------------------------------------------------
 Cartesian Forces:  Max     0.041718001 RMS     0.013703695

 GradGradGradGradGradGradGradGradGradGradGradGradGradGradGradGradGradGrad
 Berny optimization.
 Using GEDIIS/GDIIS optimizer.
 Internal  Forces:  Max     0.047508043 RMS     0.010009563
 Search for a local minimum.
 Step number   2 out of a maximum of   99
 All quantities printed in internal units (Hartrees-Bohrs-Radians)
 Mixed Optimization -- RFO/linear search
 Update second derivatives using D2CorX and points    1    2
 DE= -5.00D-02 DEPred=-5.45D-02 R= 9.18D-01
 SS=  1.41D+00  RLast= 3.16D-01 DXNew= 5.0454D-01 9.4906D-01
 Trust test= 9.18D-01 RLast= 3.16D-01 DXMaxT set to 5.05D-01
 ITU=  1  0
 Use linear search instead of GDIIS.
     Eigenvalues ---    0.02088   0.02108   0.02380   0.03762   0.03923
     Eigenvalues ---    0.04640   0.05273   0.05781   0.06062   0.06199
     Eigenvalues ---    0.06486   0.07010   0.07149   0.09164   0.09479
     Eigenvalues ---    0.09862   0.09940   0.10560   0.11773   0.11985
     Eigenvalues ---    0.12495   0.13103   0.13782   0.19019   0.19772
     Eigenvalues ---    0.22107   0.34092   0.34123   0.34126   0.34127
     Eigenvalues ---    0.34129   0.34131   0.34131   0.34132   0.34133
     Eigenvalues ---    0.34159   0.41362   0.42114   0.44019   0.45544
     Eigenvalues ---    0.45654   0.50548
 RFO step:  Lambda=-8.32415756D-03 EMin= 2.08834511D-02
 Quartic linear search produced a step of  0.92147.
 Iteration  1 RMS(Cart)=  0.06690766 RMS(Int)=  0.00247331
 Iteration  2 RMS(Cart)=  0.00298500 RMS(Int)=  0.00116970
 Iteration  3 RMS(Cart)=  0.00000428 RMS(Int)=  0.00116969
 Iteration  4 RMS(Cart)=  0.00000001 RMS(Int)=  0.00116969
 Variable       Old X    -DE/DX   Delta X   Delta X   Delta X     New X
                                 (Linear)    (Quad)   (Total)
    R1        2.76431   0.04105   0.10908  -0.00203   0.10668   2.87099
    R2        2.65885   0.00487   0.01272  -0.01275  -0.00152   2.65733
    R3        2.06890  -0.00100  -0.00202  -0.00232  -0.00434   2.06456
    R4        2.08429   0.00280   0.01214  -0.00364   0.00850   2.09279
    R5        2.78963   0.04548   0.13212  -0.00697   0.12633   2.91595
    R6        2.07432  -0.00069   0.00292  -0.00836  -0.00544   2.06888
    R7        2.07221  -0.00043   0.00090  -0.00379  -0.00288   2.06933
    R8        2.79745   0.04751   0.14053  -0.00973   0.13229   2.92974
    R9        2.06920  -0.00130  -0.00172  -0.00443  -0.00616   2.06304
   R10        2.07242  -0.00109   0.00126  -0.00791  -0.00666   2.06576
   R11        2.78814   0.04681   0.13231  -0.01052   0.12193   2.91007
   R12        2.07005  -0.00102  -0.00099  -0.00404  -0.00503   2.06502
   R13        2.07177  -0.00107   0.00056  -0.00671  -0.00616   2.06561
   R14        2.66280   0.00574   0.01510  -0.00932   0.00460   2.66740
   R15        2.06823  -0.00114  -0.00272  -0.00201  -0.00474   2.06349
   R16        2.08086   0.00204   0.00901  -0.00292   0.00609   2.08695
    A1        1.96692   0.00440   0.01288  -0.03987  -0.03102   1.93591
    A2        1.91382   0.00060   0.01273   0.01327   0.02634   1.94016
    A3        1.92166   0.00255   0.01999   0.02008   0.04006   1.96172
    A4        1.87289  -0.00496  -0.02493  -0.02712  -0.05035   1.82254
    A5        1.89291  -0.00096  -0.00657   0.04542   0.03946   1.93236
    A6        1.89371  -0.00205  -0.01563  -0.01211  -0.02866   1.86505
    A7        2.00692  -0.00295  -0.00943  -0.02353  -0.03371   1.97321
    A8        1.88099   0.00023  -0.00246   0.00877   0.00718   1.88817
    A9        1.88272   0.00068  -0.00085   0.01007   0.00967   1.89239
   A10        1.90012   0.00240   0.01519   0.02241   0.03741   1.93753
   A11        1.90042   0.00264   0.01548   0.01549   0.03175   1.93217
   A12        1.88962  -0.00318  -0.01937  -0.03531  -0.05524   1.83438
   A13        2.05333  -0.00814  -0.02649   0.00148  -0.02434   2.02899
   A14        1.87441   0.00204   0.00693   0.01072   0.01764   1.89205
   A15        1.88337   0.00434   0.01518   0.01444   0.02977   1.91315
   A16        1.88328   0.00326   0.01515   0.00223   0.01724   1.90052
   A17        1.88263   0.00310   0.01457   0.01002   0.02478   1.90741
   A18        1.88065  -0.00471  -0.02759  -0.04441  -0.07189   1.80876
   A19        2.06279  -0.00553  -0.01789  -0.00817  -0.02664   2.03615
   A20        1.88517   0.00389   0.01690   0.00313   0.02039   1.90556
   A21        1.87839   0.00183   0.01068   0.02574   0.03657   1.91496
   A22        1.86775   0.00044   0.00083   0.00323   0.00442   1.87217
   A23        1.88048   0.00337   0.01261   0.01537   0.02841   1.90889
   A24        1.88280  -0.00421  -0.02565  -0.04468  -0.07035   1.81246
   A25        2.03057   0.00443   0.01196  -0.02853  -0.02019   2.01038
   A26        1.90814   0.00198   0.02263   0.00718   0.03061   1.93875
   A27        1.91045   0.00174   0.02477   0.00551   0.03008   1.94053
   A28        1.85465  -0.00442  -0.02656  -0.02225  -0.04757   1.80709
   A29        1.86759  -0.00192  -0.01465   0.05015   0.03618   1.90377
   A30        1.88721  -0.00249  -0.02158  -0.01188  -0.03448   1.85273
   A31        1.96791   0.00562   0.01397  -0.04169  -0.03541   1.93250
    D1       -0.79849  -0.00261  -0.01359  -0.08227  -0.09472  -0.89321
    D2        1.32392  -0.00130  -0.00210  -0.06249  -0.06398   1.25994
    D3       -2.92259  -0.00455  -0.02666  -0.09407  -0.11998  -3.04258
    D4       -2.88346   0.00040   0.00090  -0.03132  -0.02941  -2.91287
    D5       -0.76104   0.00171   0.01240  -0.01155   0.00132  -0.75972
    D6        1.27563  -0.00154  -0.01217  -0.04313  -0.05468   1.22095
    D7        1.31737   0.00098   0.00031  -0.03701  -0.03675   1.28062
    D8       -2.84339   0.00229   0.01180  -0.01723  -0.00602  -2.84942
    D9       -0.80672  -0.00096  -0.01276  -0.04881  -0.06202  -0.86875
   D10        1.08132   0.00633   0.02810   0.13915   0.16545   1.24677
   D11       -3.09333   0.00643   0.03529   0.11302   0.14831  -2.94502
   D12       -1.05083   0.00088  -0.00085   0.10793   0.10723  -0.94360
   D13        0.26990   0.00083   0.00535   0.03659   0.04218   0.31208
   D14        2.39670   0.00116   0.01284   0.04927   0.06210   2.45880
   D15       -1.86336  -0.00109  -0.00810   0.01027   0.00210  -1.86126
   D16       -1.84210   0.00074   0.00347   0.02441   0.02854  -1.81357
   D17        0.28470   0.00106   0.01096   0.03710   0.04846   0.33316
   D18        2.30782  -0.00119  -0.00998  -0.00191  -0.01154   2.29628
   D19        2.38437   0.00169   0.00954   0.04526   0.05489   2.43926
   D20       -1.77201   0.00201   0.01703   0.05794   0.07481  -1.69720
   D21        0.25111  -0.00023  -0.00391   0.01893   0.01481   0.26592
   D22       -0.01325  -0.00288  -0.01184  -0.03914  -0.05133  -0.06458
   D23       -2.13484  -0.00276  -0.01446  -0.04024  -0.05484  -2.18967
   D24        2.11975  -0.00079   0.00140  -0.00291  -0.00185   2.11790
   D25       -2.13549  -0.00253  -0.01509  -0.05624  -0.07140  -2.20688
   D26        2.02611  -0.00242  -0.01772  -0.05734  -0.07490   1.95121
   D27       -0.00249  -0.00044  -0.00185  -0.02001  -0.02191  -0.02440
   D28        2.12039  -0.00032   0.00193  -0.01056  -0.00870   2.11169
   D29       -0.00120  -0.00020  -0.00070  -0.01166  -0.01221  -0.01340
   D30       -2.02979   0.00178   0.01517   0.02567   0.04079  -1.98901
   D31        0.27390   0.00086   0.00898   0.08825   0.09681   0.37071
   D32        2.37391  -0.00033  -0.00020   0.04472   0.04395   2.41786
   D33       -1.84503  -0.00116   0.00073   0.03779   0.03888  -1.80615
   D34        2.40434   0.00255   0.01978   0.08937   0.10888   2.51322
   D35       -1.77883   0.00136   0.01059   0.04584   0.05602  -1.72281
   D36        0.28541   0.00053   0.01153   0.03891   0.05095   0.33636
   D37       -1.85805  -0.00045  -0.00328   0.04675   0.04320  -1.81484
   D38        0.24197  -0.00164  -0.01246   0.00322  -0.00966   0.23232
   D39        2.30621  -0.00247  -0.01153  -0.00371  -0.01472   2.29149
   D40       -0.80709  -0.00448  -0.02150  -0.13844  -0.15813  -0.96522
   D41       -2.93554  -0.00655  -0.03846  -0.11206  -0.14980  -3.08533
   D42        1.33439  -0.00069   0.00748  -0.11131  -0.10370   1.23068
         Item               Value     Threshold  Converged?
 Maximum Force            0.047508     0.000450     NO 
 RMS     Force            0.010010     0.000300     NO 
 Maximum Displacement     0.201588     0.001800     NO 
 RMS     Displacement     0.067080     0.001200     NO 
 Predicted change in Energy=-8.671865D-03
 GradGradGradGradGradGradGradGradGradGradGradGradGradGradGradGradGradGrad

                          Input orientation:                          
 ---------------------------------------------------------------------
 Center     Atomic      Atomic             Coordinates (Angstroms)
 Number     Number       Type             X           Y           Z
 ---------------------------------------------------------------------
      1          6           0        1.346833   -0.071059   -0.303240
      2          6           0        0.786081    1.265719    0.151450
      3          6           0       -0.752471    1.338619    0.058910
      4          6           0       -1.498051   -0.016515   -0.047447
      5          6           0       -0.623796   -1.280990   -0.138041
      6          8           0        0.694770   -1.135456    0.344267
      7          1           0       -1.033006   -2.086234    0.475548
      8          1           0       -0.589397   -1.669198   -1.171354
      9          1           0       -2.142177   -0.003591   -0.930092
     10          1           0       -2.198105   -0.118688    0.785796
     11          1           0       -1.125015    1.879547    0.930945
     12          1           0       -1.039774    1.975737   -0.781638
     13          1           0        1.126847    1.448583    1.175673
     14          1           0        1.247950    2.056876   -0.448439
     15          1           0        2.395026   -0.177908   -0.014319
     16          1           0        1.302486   -0.195245   -1.402819
 ---------------------------------------------------------------------
                    Distance matrix (angstroms):
                    1          2          3          4          5
     1  C    0.000000
     2  C    1.519263   0.000000
     3  C    2.554491   1.543056   0.000000
     4  C    2.856882   2.626965   1.550352   0.000000
     5  C    2.318319   2.925284   2.630152   1.539944   0.000000
     6  O    1.406198   2.410634   2.880448   2.492776   1.411530
     7  H    3.214200   3.827494   3.461489   2.184840   1.091954
     8  H    2.656437   3.500784   3.253783   2.195491   1.104366
     9  H    3.545517   3.369804   2.170469   1.092761   2.136486
    10  H    3.708754   3.350276   2.177605   1.093072   2.163994
    11  H    3.382028   2.153297   1.091713   2.165978   3.373863
    12  H    3.180272   2.169913   1.093153   2.172124   3.345673
    13  H    2.131874   1.094802   2.188855   3.245401   3.498738
    14  H    2.135174   1.095042   2.185173   3.464140   3.839418
    15  H    1.092520   2.168004   3.494561   3.896562   3.216423
    16  H    1.107458   2.194730   2.951650   3.116406   2.547364
                    6          7          8          9         10
     6  O    0.000000
     7  H    1.976468   0.000000
     8  H    2.056957   1.755846   0.000000
     9  H    3.309589   2.746541   2.289886   0.000000
    10  H    3.097982   2.307584   2.970262   1.720652   0.000000
    11  H    3.570161   3.992903   4.159344   2.836245   2.272782
    12  H    3.735749   4.252078   3.693273   2.270478   2.860978
    13  H    2.748670   4.201199   4.263166   4.150852   3.696438
    14  H    3.335472   4.818908   4.216880   3.996308   4.258135
    15  H    1.984024   3.953869   3.531211   4.631980   4.662675
    16  H    2.075000   3.543815   2.409426   3.482227   4.129168
                   11         12         13         14         15
    11  H    0.000000
    12  H    1.717399   0.000000
    13  H    2.305755   2.967019   0.000000
    14  H    2.750474   2.313284   1.738512   0.000000
    15  H    4.185372   4.126113   2.381141   2.549217   0.000000
    16  H    3.955247   3.253491   3.062946   2.446603   1.766883
                   16
    16  H    0.000000
 Stoichiometry    C5H10O
 Framework group  C1[X(C5H10O)]
 Deg. of freedom    42
 Full point group                 C1      NOp   1
 Largest Abelian subgroup         C1      NOp   1
 Largest concise Abelian subgroup C1      NOp   1
                         Standard orientation:                         
 ---------------------------------------------------------------------
 Center     Atomic      Atomic             Coordinates (Angstroms)
 Number     Number       Type             X           Y           Z
 ---------------------------------------------------------------------
      1          6           0       -0.715621   -1.169805    0.292072
      2          6           0       -1.476998    0.080508   -0.114355
      3          6           0       -0.626246    1.364231   -0.017925
      4          6           0        0.910235    1.165848    0.040891
      5          6           0        1.418174   -0.287222    0.085744
      6          8           0        0.509792   -1.256127   -0.392255
      7          1           0        2.292172   -0.417774   -0.555697
      8          1           0        1.740392   -0.566079    1.104586
      9          1           0        1.304385    1.674650    0.924006
     10          1           0        1.381934    1.689172   -0.794836
     11          1           0       -0.867867    2.002706   -0.869868
     12          1           0       -0.947526    1.953438    0.844975
     13          1           0       -1.854356   -0.064845   -1.131737
     14          1           0       -2.371053    0.160523    0.512847
     15          1           0       -1.255425   -2.073183   -0.001387
     16          1           0       -0.558251   -1.230950    1.386586
 ---------------------------------------------------------------------
 Rotational constants (GHZ):      4.5848407      4.4179935      2.5116702
 Standard basis: 6-31G(d) (6D, 7F)
 There are   110 symmetry adapted basis functions of A   symmetry.
 Integral buffers will be    131072 words long.
 Raffenetti 2 integral format.
 Two-electron integral symmetry is turned on.
   110 basis functions,   208 primitive gaussians,   110 cartesian basis functions
    24 alpha electrons       24 beta electrons
       nuclear repulsion energy       258.1053372144 Hartrees.
 NAtoms=   16 NActive=   16 NUniq=   16 SFac= 1.00D+00 NAtFMM=   50 NAOKFM=F Big=F
 One-electron integrals computed using PRISM.
 NBasis=   110 RedAO= T  NBF=   110
 NBsUse=   110 1.00D-06 NBFU=   110
 Initial guess read from the read-write file.
 B after Tr=     0.000000    0.000000    0.000000
         Rot=    1.000000    0.000000    0.000000    0.000000 Ang=   0.00 deg.
 Initial guess orbital symmetries:
       Occupied  (A) (A) (A) (A) (A) (A) (A) (A) (A) (A) (A) (A)
                 (A) (A) (A) (A) (A) (A) (A) (A) (A) (A) (A) (A)
       Virtual   (A) (A) (A) (A) (A) (A) (A) (A) (A) (A) (A) (A)
                 (A) (A) (A) (A) (A) (A) (A) (A) (A) (A) (A) (A)
                 (A) (A) (A) (A) (A) (A) (A) (A) (A) (A) (A) (A)
                 (A) (A) (A) (A) (A) (A) (A) (A) (A) (A) (A) (A)
                 (A) (A) (A) (A) (A) (A) (A) (A) (A) (A) (A) (A)
                 (A) (A) (A) (A) (A) (A) (A) (A) (A) (A) (A) (A)
                 (A) (A) (A) (A) (A) (A) (A) (A) (A) (A) (A) (A)
                 (A) (A)
 Harris functional with IExCor= 1009 diagonalized for initial guess.
 ExpMin= 1.61D-01 ExpMax= 5.48D+03 ExpMxC= 8.25D+02 IAcc=1 IRadAn=         1 AccDes= 0.00D+00
 HarFok:  IExCor= 1009 AccDes= 0.00D+00 IRadAn=         1 IDoV= 1
 ScaDFX=  1.000000  1.000000  1.000000  1.000000
 FoFCou: FMM=F IPFlag=           0 FMFlag=      100000 FMFlg1=           0
         NFxFlg=           0 DoJE=T BraDBF=F KetDBF=T FulRan=T
         Omega=  0.000000  0.000000  1.000000  0.000000  0.000000 ICntrl=     500 IOpCl=  0
         NMat0=    1 NMatS0=    1 NMatT0=    0 NMatD0=    1 NMtDS0=    0 NMtDT0=    0
         I1Cent=           4 NGrid=           0.
 Petite list used in FoFCou.
 Requested convergence on RMS density matrix=1.00D-08 within 128 cycles.
 Requested convergence on MAX density matrix=1.00D-06.
 Requested convergence on             energy=1.00D-06.
 No special actions if energy rises.
 Keep R1 ints in memory in canonical form, NReq=19758706.
 Integral accuracy reduced to 1.0D-05 until final iterations.
 Initial convergence to 1.0D-05 achieved.  Increase integral accuracy.
 SCF Done:  E(RM062X) =  -271.621316143     A.U. after   15 cycles
             Convg  =    0.4976D-08             -V/T =  2.0085
 Calling FoFJK, ICntrl=      2127 FMM=F ISym2X=0 I1Cent= 0 IOpClX= 0 NMat=1 NMatS=1 NMatT=0.
 ***** Axes restored to original set *****
 -------------------------------------------------------------------
 Center     Atomic                   Forces (Hartrees/Bohr)
 Number     Number              X              Y              Z
 -------------------------------------------------------------------
      1        6           0.007601170   -0.003920307    0.000167255
      2        6           0.003644015    0.002714537   -0.001524198
      3        6          -0.000326596    0.003369962   -0.000659071
      4        6          -0.004262738   -0.001041637   -0.000014554
      5        6           0.003063432   -0.009090068    0.002070522
      6        8          -0.005691740    0.002889965   -0.001423568
      7        1          -0.004711723    0.000244271   -0.000361559
      8        1           0.001304391    0.004260154   -0.000274831
      9        1           0.000068954    0.000734848   -0.001854577
     10        1           0.003237228    0.000138697    0.003550598
     11        1          -0.000068547   -0.000739646    0.002107693
     12        1           0.001637063   -0.002337807   -0.003453021
     13        1          -0.002565464   -0.003236055    0.001410921
     14        1          -0.001450271    0.001283919   -0.000895071
     15        1           0.002210753    0.003883362   -0.001127182
     16        1          -0.003689929    0.000845805    0.002280643
 -------------------------------------------------------------------
 Cartesian Forces:  Max     0.009090068 RMS     0.002976336

 GradGradGradGradGradGradGradGradGradGradGradGradGradGradGradGradGradGrad
 Berny optimization.
 Using GEDIIS/GDIIS optimizer.
 Internal  Forces:  Max     0.004351224 RMS     0.001501239
 Search for a local minimum.
 Step number   3 out of a maximum of   99
 All quantities printed in internal units (Hartrees-Bohrs-Radians)
 Mixed Optimization -- RFO/linear search
 Update second derivatives using D2CorX and points    2    3
 DE= -1.41D-02 DEPred=-8.67D-03 R= 1.62D+00
 SS=  1.41D+00  RLast= 5.69D-01 DXNew= 8.4853D-01 1.7077D+00
 Trust test= 1.62D+00 RLast= 5.69D-01 DXMaxT set to 8.49D-01
 ITU=  1  1  0
 Use linear search instead of GDIIS.
     Eigenvalues ---    0.01954   0.02138   0.02405   0.03735   0.03935
     Eigenvalues ---    0.04655   0.05365   0.05890   0.06069   0.06168
     Eigenvalues ---    0.06475   0.06863   0.07100   0.09085   0.09324
     Eigenvalues ---    0.09812   0.09863   0.10311   0.11485   0.12071
     Eigenvalues ---    0.12596   0.13047   0.13804   0.18074   0.19090
     Eigenvalues ---    0.21935   0.34036   0.34123   0.34126   0.34127
     Eigenvalues ---    0.34130   0.34131   0.34131   0.34133   0.34139
     Eigenvalues ---    0.34229   0.39301   0.41521   0.42757   0.43734
     Eigenvalues ---    0.45619   0.45696
 RFO step:  Lambda=-1.92232798D-03 EMin= 1.95447456D-02
 Quartic linear search produced a step of -0.05796.
 Iteration  1 RMS(Cart)=  0.01638903 RMS(Int)=  0.00026942
 Iteration  2 RMS(Cart)=  0.00024922 RMS(Int)=  0.00011885
 Iteration  3 RMS(Cart)=  0.00000002 RMS(Int)=  0.00011885
 Variable       Old X    -DE/DX   Delta X   Delta X   Delta X     New X
                                 (Linear)    (Quad)   (Total)
    R1        2.87099   0.00002  -0.00618   0.01139   0.00523   2.87622
    R2        2.65733   0.00378   0.00009   0.00820   0.00842   2.66574
    R3        2.06456   0.00145   0.00025   0.00356   0.00381   2.06838
    R4        2.09279  -0.00222  -0.00049  -0.00512  -0.00561   2.08718
    R5        2.91595  -0.00062  -0.00732   0.01265   0.00523   2.92119
    R6        2.06888  -0.00001   0.00032  -0.00041  -0.00009   2.06879
    R7        2.06933   0.00080   0.00017   0.00197   0.00214   2.07147
    R8        2.92974   0.00067  -0.00767   0.01559   0.00780   2.93754
    R9        2.06304   0.00134   0.00036   0.00313   0.00348   2.06652
   R10        2.06576   0.00086   0.00039   0.00185   0.00223   2.06799
   R11        2.91007   0.00050  -0.00707   0.01371   0.00664   2.91671
   R12        2.06502   0.00148   0.00029   0.00361   0.00390   2.06892
   R13        2.06561   0.00061   0.00036   0.00119   0.00154   2.06715
   R14        2.66740   0.00068  -0.00027   0.00146   0.00128   2.66869
   R15        2.06349   0.00138   0.00027   0.00333   0.00360   2.06710
   R16        2.08695  -0.00119  -0.00035  -0.00257  -0.00292   2.08403
    A1        1.93591  -0.00140   0.00180  -0.00843  -0.00648   1.92943
    A2        1.94016  -0.00225  -0.00153  -0.00729  -0.00893   1.93123
    A3        1.96172  -0.00129  -0.00232  -0.01730  -0.01991   1.94181
    A4        1.82254   0.00435   0.00292   0.03506   0.03791   1.86044
    A5        1.93236  -0.00050  -0.00229  -0.00929  -0.01207   1.92029
    A6        1.86505   0.00156   0.00166   0.01158   0.01322   1.87827
    A7        1.97321   0.00003   0.00195  -0.00308  -0.00103   1.97218
    A8        1.88817  -0.00024  -0.00042  -0.00619  -0.00674   1.88143
    A9        1.89239   0.00096  -0.00056   0.01184   0.01123   1.90361
   A10        1.93753  -0.00097  -0.00217  -0.00816  -0.01043   1.92709
   A11        1.93217  -0.00107  -0.00184  -0.00802  -0.00988   1.92229
   A12        1.83438   0.00144   0.00320   0.01535   0.01857   1.85295
   A13        2.02899   0.00140   0.00141   0.00378   0.00514   2.03413
   A14        1.89205  -0.00050  -0.00102  -0.00305  -0.00410   1.88795
   A15        1.91315  -0.00095  -0.00173  -0.00512  -0.00681   1.90634
   A16        1.90052  -0.00114  -0.00100  -0.00579  -0.00678   1.89374
   A17        1.90741  -0.00058  -0.00144  -0.00527  -0.00670   1.90071
   A18        1.80876   0.00183   0.00417   0.01715   0.02131   1.83008
   A19        2.03615   0.00052   0.00154  -0.00245  -0.00087   2.03527
   A20        1.90556  -0.00110  -0.00118  -0.00786  -0.00902   1.89654
   A21        1.91496  -0.00045  -0.00212  -0.00217  -0.00436   1.91059
   A22        1.87217   0.00021  -0.00026   0.00081   0.00047   1.87264
   A23        1.90889  -0.00066  -0.00165  -0.00292  -0.00458   1.90431
   A24        1.81246   0.00165   0.00408   0.01703   0.02112   1.83358
   A25        2.01038  -0.00231   0.00117  -0.01298  -0.01165   1.99873
   A26        1.93875  -0.00263  -0.00177  -0.01158  -0.01340   1.92535
   A27        1.94053  -0.00132  -0.00174  -0.01589  -0.01786   1.92267
   A28        1.80709   0.00429   0.00276   0.03203   0.03475   1.84183
   A29        1.90377   0.00074  -0.00210  -0.00187  -0.00450   1.89927
   A30        1.85273   0.00193   0.00200   0.01570   0.01759   1.87032
   A31        1.93250   0.00271   0.00205   0.01156   0.01395   1.94646
    D1       -0.89321   0.00196   0.00549   0.00352   0.00889  -0.88432
    D2        1.25994   0.00056   0.00371  -0.01348  -0.00988   1.25006
    D3       -3.04258   0.00260   0.00695   0.00727   0.01410  -3.02847
    D4       -2.91287  -0.00118   0.00170  -0.03012  -0.02842  -2.94129
    D5       -0.75972  -0.00258  -0.00008  -0.04712  -0.04719  -0.80691
    D6        1.22095  -0.00054   0.00317  -0.02638  -0.02321   1.19774
    D7        1.28062  -0.00073   0.00213  -0.02807  -0.02582   1.25480
    D8       -2.84942  -0.00213   0.00035  -0.04507  -0.04459  -2.89401
    D9       -0.86875  -0.00009   0.00360  -0.02433  -0.02061  -0.88936
   D10        1.24677  -0.00017  -0.00959   0.01112   0.00173   1.24850
   D11       -2.94502  -0.00100  -0.00860   0.01873   0.01021  -2.93481
   D12       -0.94360   0.00291  -0.00622   0.04669   0.04048  -0.90313
   D13        0.31208   0.00023  -0.00244   0.01105   0.00863   0.32070
   D14        2.45880  -0.00068  -0.00360   0.00362   0.00002   2.45882
   D15       -1.86126   0.00074  -0.00012   0.01960   0.01948  -1.84178
   D16       -1.81357   0.00124  -0.00165   0.02733   0.02566  -1.78791
   D17        0.33316   0.00033  -0.00281   0.01991   0.01706   0.35021
   D18        2.29628   0.00174   0.00067   0.03589   0.03651   2.33279
   D19        2.43926   0.00072  -0.00318   0.01833   0.01518   2.45444
   D20       -1.69720  -0.00019  -0.00434   0.01091   0.00658  -1.69062
   D21        0.26592   0.00122  -0.00086   0.02688   0.02604   0.29196
   D22       -0.06458  -0.00015   0.00298  -0.02012  -0.01720  -0.08178
   D23       -2.18967   0.00008   0.00318  -0.01309  -0.00999  -2.19966
   D24        2.11790  -0.00104   0.00011  -0.02793  -0.02787   2.09004
   D25       -2.20688   0.00042   0.00414  -0.01413  -0.01000  -2.21688
   D26        1.95121   0.00066   0.00434  -0.00710  -0.00279   1.94843
   D27       -0.02440  -0.00047   0.00127  -0.02194  -0.02067  -0.04506
   D28        2.11169  -0.00085   0.00050  -0.02859  -0.02810   2.08359
   D29       -0.01340  -0.00061   0.00071  -0.02157  -0.02089  -0.03429
   D30       -1.98901  -0.00174  -0.00236  -0.03640  -0.03877  -2.02778
   D31        0.37071  -0.00054  -0.00561   0.01933   0.01373   0.38444
   D32        2.41786   0.00154  -0.00255   0.04361   0.04104   2.45890
   D33       -1.80615   0.00141  -0.00225   0.04559   0.04318  -1.76297
   D34        2.51322  -0.00146  -0.00631   0.00792   0.00166   2.51487
   D35       -1.72281   0.00061  -0.00325   0.03221   0.02896  -1.69385
   D36        0.33636   0.00048  -0.00295   0.03418   0.03111   0.36747
   D37       -1.81484   0.00025  -0.00250   0.02673   0.02427  -1.79057
   D38        0.23232   0.00232   0.00056   0.05102   0.05157   0.28389
   D39        2.29149   0.00219   0.00085   0.05299   0.05372   2.34521
   D40       -0.96522   0.00004   0.00917  -0.02038  -0.01143  -0.97666
   D41       -3.08533   0.00164   0.00868  -0.02096  -0.01224  -3.09757
   D42        1.23068  -0.00289   0.00601  -0.05323  -0.04738   1.18330
         Item               Value     Threshold  Converged?
 Maximum Force            0.004351     0.000450     NO 
 RMS     Force            0.001501     0.000300     NO 
 Maximum Displacement     0.060080     0.001800     NO 
 RMS     Displacement     0.016399     0.001200     NO 
 Predicted change in Energy=-1.064178D-03
 GradGradGradGradGradGradGradGradGradGradGradGradGradGradGradGradGradGrad

                          Input orientation:                          
 ---------------------------------------------------------------------
 Center     Atomic      Atomic             Coordinates (Angstroms)
 Number     Number       Type             X           Y           Z
 ---------------------------------------------------------------------
      1          6           0        1.357556   -0.073501   -0.296156
      2          6           0        0.792377    1.266973    0.151364
      3          6           0       -0.748702    1.336116    0.052017
      4          6           0       -1.500566   -0.021326   -0.039948
      5          6           0       -0.627222   -1.290368   -0.135125
      6          8           0        0.689237   -1.133666    0.351407
      7          1           0       -1.064800   -2.097936    0.458921
      8          1           0       -0.581088   -1.642599   -1.179162
      9          1           0       -2.147435   -0.004415   -0.923076
     10          1           0       -2.182396   -0.118755    0.809881
     11          1           0       -1.122472    1.881560    0.923024
     12          1           0       -1.027044    1.954458   -0.806905
     13          1           0        1.116659    1.439332    1.182685
     14          1           0        1.245417    2.064858   -0.448412
     15          1           0        2.414309   -0.157239   -0.023627
     16          1           0        1.284369   -0.193292   -1.391688
 ---------------------------------------------------------------------
                    Distance matrix (angstroms):
                    1          2          3          4          5
     1  C    0.000000
     2  C    1.522029   0.000000
     3  C    2.558235   1.545825   0.000000
     4  C    2.870057   2.637025   1.554479   0.000000
     5  C    2.333675   2.938934   2.635943   1.543456   0.000000
     6  O    1.410651   2.411166   2.873521   2.487106   1.412208
     7  H    3.245964   3.855685   3.472492   2.179695   1.093860
     8  H    2.645772   3.481712   3.227482   2.184439   1.102819
     9  H    3.561287   3.378364   2.168936   1.094824   2.141400
    10  H    3.708992   3.347112   2.178643   1.093889   2.164320
    11  H    3.385144   2.154024   1.093556   2.165928   3.380248
    12  H    3.171718   2.168226   1.094334   2.171674   3.337670
    13  H    2.129240   1.094755   2.183720   3.237008   3.496999
    14  H    2.146703   1.096174   2.181285   3.472669   3.855187
    15  H    1.094537   2.165564   3.498638   3.917268   3.247664
    16  H    1.104490   2.180698   2.925193   3.100425   2.537067
                    6          7          8          9         10
     6  O    0.000000
     7  H    2.004500   0.000000
     8  H    2.053139   1.767661   0.000000
     9  H    3.308508   2.732187   2.280937   0.000000
    10  H    3.080019   2.299858   2.973648   1.737077   0.000000
    11  H    3.563793   4.006882   4.139080   2.831172   2.266605
    12  H    3.718039   4.245660   3.643662   2.259636   2.871767
    13  H    2.737523   4.218395   4.237802   4.144025   3.667476
[...]
 H,0,1.2788959617,2.0950146892,-0.1099741084
 H,0,2.3872220785,-0.1664691455,0.1265342692
 H,0,1.402716955,-0.0485958088,-1.3506860076
 Recover connectivity data from disk.
                          Input orientation:                          
 ---------------------------------------------------------------------
 Center     Atomic      Atomic             Coordinates (Angstroms)
 Number     Number       Type             X           Y           Z
 ---------------------------------------------------------------------
      1          6           0        1.365309   -0.058973   -0.247008
      2          6           0        0.717709    1.227960    0.255980
      3          6           0       -0.743931    1.283598   -0.195210
      4          6           0       -1.457684   -0.007291    0.213958
      5          6           0       -0.669389   -1.215050   -0.284640
      6          8           0        0.660398   -1.201819    0.193622
      7          1           0       -1.110463   -2.152995    0.063363
      8          1           0       -0.666616   -1.225999   -1.388923
      9          1           0       -2.478001   -0.039071   -0.184338
     10          1           0       -1.525388   -0.061497    1.307344
     11          1           0       -1.249764    2.159977    0.222746
     12          1           0       -0.779488    1.383409   -1.289242
     13          1           0        0.766672    1.237999    1.351673
     14          1           0        1.278896    2.095015   -0.109974
     15          1           0        2.387222   -0.166469    0.126534
     16          1           0        1.402717   -0.048596   -1.350686
 ---------------------------------------------------------------------
                    Distance matrix (angstroms):
                    1          2          3          4          5
     1  C    0.000000
     2  C    1.525968   0.000000
     3  C    2.500815   1.530706   0.000000
     4  C    2.860848   2.501988   1.530770   0.000000
     5  C    2.340497   2.860875   2.501360   1.526005   0.000000
     6  O    1.413206   2.431254   2.881082   2.431786   1.413239
     7  H    3.257408   3.848398   3.465744   2.178827   1.093341
     8  H    2.606653   3.262510   2.780109   2.163392   1.104341
     9  H    3.843872   3.465805   2.180956   1.095763   2.159645
    10  H    3.282095   2.792767   2.162782   1.096821   2.144256
    11  H    3.461649   2.177317   1.094803   2.177237   3.461948
    12  H    2.786911   2.157191   1.099150   2.157221   2.788071
    13  H    2.143895   1.096832   2.162602   2.791577   3.279824
    14  H    2.160071   1.095736   2.181167   3.466048   3.844847
    15  H    1.093341   2.179097   3.465593   3.849192   3.257523
    16  H    1.104361   2.163379   2.778123   3.260630   2.605896
                    6          7          8          9         10
     6  O    0.000000
     7  H    2.014362   0.000000
     8  H    2.065430   1.779174   0.000000
     9  H    3.368143   2.529860   2.478092   0.000000
    10  H    2.705249   2.468606   3.059969   1.770054   0.000000
    11  H    3.866683   4.318164   3.795046   2.551489   2.487422
    12  H    3.309919   3.800690   2.613750   2.475723   3.063719
    13  H    2.702793   4.084388   3.954297   3.810268   2.635184
    14  H    3.368059   4.876953   4.055842   4.321357   3.810950
    15  H    2.014539   4.022944   3.570033   4.876809   4.088258
    16  H    2.065393   3.569889   2.381150   4.052213   3.954629
                   11         12         13         14         15
    11  H    0.000000
    12  H    1.763610   0.000000
    13  H    2.488078   3.063688   0.000000
    14  H    2.551282   2.476691   1.770102   0.000000
    15  H    4.318481   3.799289   2.469753   2.529552   0.000000
    16  H    3.793301   2.610830   3.059841   2.479872   1.779136
                   16
    16  H    0.000000
 Stoichiometry    C5H10O
 Framework group  C1[X(C5H10O)]
 Deg. of freedom    42
 Full point group                 C1      NOp   1
 Largest Abelian subgroup         C1      NOp   1
 Largest concise Abelian subgroup C1      NOp   1
                         Standard orientation:                         
 ---------------------------------------------------------------------
 Center     Atomic      Atomic             Coordinates (Angstroms)
 Number     Number       Type             X           Y           Z
 ---------------------------------------------------------------------
      1          6           0       -1.169888   -0.768659    0.203148
      2          6           0       -1.251227    0.692936   -0.227786
      3          6           0       -0.000809    1.441766    0.239943
      4          6           0        1.250761    0.694196   -0.226928
      5          6           0        1.170609   -0.768022    0.202242
      6          8           0        0.000320   -1.390578   -0.287749
      7          1           0        2.011759   -1.347050   -0.188380
      8          1           0        1.191805   -0.832753    1.304481
      9          1           0        2.159901    1.151571    0.179233
     10          1           0        1.318380    0.733947   -1.320941
     11          1           0       -0.001093    2.472812   -0.128209
     12          1           0       -0.001198    1.492610    1.337916
     13          1           0       -1.316802    0.730885   -1.321998
     14          1           0       -2.161454    1.150187    0.176004
     15          1           0       -2.011183   -1.348908   -0.185347
     16          1           0       -1.189345   -0.831974    1.305520
 ---------------------------------------------------------------------
 Rotational constants (GHZ):      4.7030364      4.5200110      2.6178742
 Standard basis: 6-311++G(d,p) (5D, 7F)
 There are   202 symmetry adapted basis functions of A   symmetry.
 Integral buffers will be    131072 words long.
 Raffenetti 2 integral format.
 Two-electron integral symmetry is turned on.
   202 basis functions,   306 primitive gaussians,   208 cartesian basis functions
    24 alpha electrons       24 beta electrons
       nuclear repulsion energy       260.6271617030 Hartrees.
 NAtoms=   16 NActive=   16 NUniq=   16 SFac= 1.00D+00 NAtFMM=   50 NAOKFM=F Big=F
 One-electron integrals computed using PRISM.
 NBasis=   202 RedAO= T  NBF=   202
 NBsUse=   202 1.00D-06 NBFU=   202
 Initial guess read from the checkpoint file:  /home/hmayes/gaussian/pucker/chks/1HO00.chk
 B after Tr=     0.000000    0.000000    0.000000
         Rot=    1.000000    0.000000    0.000000    0.000000 Ang=   0.00 deg.
 Initial guess orbital symmetries:
       Occupied  (A) (A) (A) (A) (A) (A) (A) (A) (A) (A) (A) (A)
                 (A) (A) (A) (A) (A) (A) (A) (A) (A) (A) (A) (A)
       Virtual   (A) (A) (A) (A) (A) (A) (A) (A) (A) (A) (A) (A)
                 (A) (A) (A) (A) (A) (A) (A) (A) (A) (A) (A) (A)
                 (A) (A) (A) (A) (A) (A) (A) (A) (A) (A) (A) (A)
                 (A) (A) (A) (A) (A) (A) (A) (A) (A) (A) (A) (A)
                 (A) (A) (A) (A) (A) (A) (A) (A) (A) (A) (A) (A)
                 (A) (A) (A) (A) (A) (A) (A) (A) (A) (A) (A) (A)
                 (A) (A) (A) (A) (A) (A) (A) (A) (A) (A) (A) (A)
                 (A) (A) (A) (A) (A) (A) (A) (A) (A) (A) (A) (A)
                 (A) (A) (A) (A) (A) (A) (A) (A) (A) (A) (A) (A)
                 (A) (A) (A) (A) (A) (A) (A) (A) (A) (A) (A) (A)
                 (A) (A) (A) (A) (A) (A) (A) (A) (A) (A) (A) (A)
                 (A) (A) (A) (A) (A) (A) (A) (A) (A) (A) (A) (A)
                 (A) (A) (A) (A) (A) (A) (A) (A) (A) (A) (A) (A)
                 (A) (A) (A) (A) (A) (A) (A) (A) (A) (A) (A) (A)
                 (A) (A) (A) (A) (A) (A) (A) (A) (A) (A)
 Requested convergence on RMS density matrix=1.00D-08 within 128 cycles.
 Requested convergence on MAX density matrix=1.00D-06.
 Requested convergence on             energy=1.00D-06.
 No special actions if energy rises.
 Keep R1 ints in memory in canonical form, NReq=241092331.
 SCF Done:  E(RM062X) =  -271.718573013     A.U. after   11 cycles
             Convg  =    0.3629D-08             -V/T =  2.0042

 **********************************************************************

            Population analysis using the SCF density.

 **********************************************************************

 Orbital symmetries:
       Occupied  (A) (A) (A) (A) (A) (A) (A) (A) (A) (A) (A) (A)
                 (A) (A) (A) (A) (A) (A) (A) (A) (A) (A) (A) (A)
       Virtual   (A) (A) (A) (A) (A) (A) (A) (A) (A) (A) (A) (A)
                 (A) (A) (A) (A) (A) (A) (A) (A) (A) (A) (A) (A)
                 (A) (A) (A) (A) (A) (A) (A) (A) (A) (A) (A) (A)
                 (A) (A) (A) (A) (A) (A) (A) (A) (A) (A) (A) (A)
                 (A) (A) (A) (A) (A) (A) (A) (A) (A) (A) (A) (A)
                 (A) (A) (A) (A) (A) (A) (A) (A) (A) (A) (A) (A)
                 (A) (A) (A) (A) (A) (A) (A) (A) (A) (A) (A) (A)
                 (A) (A) (A) (A) (A) (A) (A) (A) (A) (A) (A) (A)
                 (A) (A) (A) (A) (A) (A) (A) (A) (A) (A) (A) (A)
                 (A) (A) (A) (A) (A) (A) (A) (A) (A) (A) (A) (A)
                 (A) (A) (A) (A) (A) (A) (A) (A) (A) (A) (A) (A)
                 (A) (A) (A) (A) (A) (A) (A) (A) (A) (A) (A) (A)
                 (A) (A) (A) (A) (A) (A) (A) (A) (A) (A) (A) (A)
                 (A) (A) (A) (A) (A) (A) (A) (A) (A) (A) (A) (A)
                 (A) (A) (A) (A) (A) (A) (A) (A) (A) (A)
 The electronic state is 1-A.
 Alpha  occ. eigenvalues --  -19.61881 -10.57899 -10.57897 -10.53570 -10.53254
 Alpha  occ. eigenvalues --  -10.53250  -1.15919  -0.90023  -0.86016  -0.73042
 Alpha  occ. eigenvalues --   -0.72210  -0.64600  -0.57364  -0.54388  -0.52448
 Alpha  occ. eigenvalues --   -0.51441  -0.48469  -0.45179  -0.45076  -0.41380
 Alpha  occ. eigenvalues --   -0.39836  -0.38087  -0.36479  -0.31852
 Alpha virt. eigenvalues --   -0.00057   0.01231   0.01256   0.01830   0.03854
 Alpha virt. eigenvalues --    0.03959   0.04133   0.04536   0.05023   0.07345
 Alpha virt. eigenvalues --    0.08374   0.09877   0.10286   0.11140   0.11173
 Alpha virt. eigenvalues --    0.11952   0.13014   0.13433   0.13906   0.14107
 Alpha virt. eigenvalues --    0.14394   0.15481   0.16046   0.16314   0.16486
 Alpha virt. eigenvalues --    0.16938   0.17182   0.17806   0.18299   0.19618
 Alpha virt. eigenvalues --    0.22070   0.22583   0.25951   0.25977   0.27279
 Alpha virt. eigenvalues --    0.27914   0.27984   0.29040   0.30420   0.32777
 Alpha virt. eigenvalues --    0.33367   0.33560   0.34716   0.35938   0.36560
 Alpha virt. eigenvalues --    0.37454   0.37472   0.37869   0.38925   0.41973
 Alpha virt. eigenvalues --    0.48518   0.48823   0.50934   0.51010   0.53375
 Alpha virt. eigenvalues --    0.57340   0.60264   0.63445   0.64250   0.66253
 Alpha virt. eigenvalues --    0.67743   0.68917   0.70098   0.71560   0.72317
 Alpha virt. eigenvalues --    0.73124   0.73710   0.73801   0.75741   0.78073
 Alpha virt. eigenvalues --    0.78391   0.79964   0.80043   0.81413   0.91650
 Alpha virt. eigenvalues --    0.92668   0.95255   1.02929   1.04610   1.07898
 Alpha virt. eigenvalues --    1.11730   1.11922   1.17685   1.25293   1.26897
 Alpha virt. eigenvalues --    1.27253   1.31953   1.34471   1.38885   1.45926
 Alpha virt. eigenvalues --    1.49940   1.55330   1.57789   1.59085   1.59576
 Alpha virt. eigenvalues --    1.61706   1.62201   1.63715   1.64631   1.64698
 Alpha virt. eigenvalues --    1.65327   1.68075   1.72064   1.74120   1.75962
 Alpha virt. eigenvalues --    1.77217   1.77476   1.79335   1.82358   1.82799
 Alpha virt. eigenvalues --    1.84008   1.87464   1.89637   1.90287   1.91399
 Alpha virt. eigenvalues --    2.01984   2.02688   2.07432   2.08304   2.18378
 Alpha virt. eigenvalues --    2.20021   2.22581   2.22947   2.25807   2.31263
 Alpha virt. eigenvalues --    2.31971   2.36354   2.37549   2.44730   2.49055
 Alpha virt. eigenvalues --    2.52890   2.54533   2.55824   2.58003   2.63270
 Alpha virt. eigenvalues --    2.64953   2.68758   2.69855   2.72460   2.74816
 Alpha virt. eigenvalues --    2.76300   2.79678   2.81005   2.85071   2.88781
 Alpha virt. eigenvalues --    2.89087   2.90329   2.96614   2.99988   3.01815
 Alpha virt. eigenvalues --    3.04434   3.12025   3.16833   3.26721   3.29504
 Alpha virt. eigenvalues --    3.37580   3.41363   3.47159   3.80988   3.82490
 Alpha virt. eigenvalues --    3.88004   3.88508   3.92650   4.08459   4.12747
 Alpha virt. eigenvalues --    4.18877   4.20476   4.35785   4.37596   5.25791
 Alpha virt. eigenvalues --    5.51776   5.78559  23.90827  23.97403  23.98644
 Alpha virt. eigenvalues --   24.00952  24.03005  50.05631
          Condensed to atoms (all electrons):
              1          2          3          4          5          6
     1  C    5.802262   0.038020  -0.233369   0.217558  -0.290458   0.202541
     2  C    0.038020   5.604330   0.001751  -0.111276   0.216602  -0.083257
     3  C   -0.233369   0.001751   5.878187   0.000490  -0.232069  -0.011219
     4  C    0.217558  -0.111276   0.000490   5.605569   0.037440  -0.083266
     5  C   -0.290458   0.216602  -0.232069   0.037440   5.802177   0.202590
     6  O    0.202541  -0.083257  -0.011219  -0.083266   0.202590   8.096037
     7  H    0.025406  -0.004193  -0.001213  -0.034385   0.426157  -0.084477
     8  H   -0.036051  -0.010189   0.042913  -0.065242   0.364372  -0.038599
     9  H    0.000919   0.022348  -0.073238   0.376931   0.002774   0.010422
    10  H   -0.016326  -0.054258   0.047328   0.488254  -0.135052   0.001105
    11  H    0.014829  -0.030549   0.347644  -0.030392   0.014786   0.006227
    12  H   -0.032060  -0.062217   0.561662  -0.062620  -0.031753  -0.000280
    13  H   -0.135351   0.488389   0.047723  -0.054393  -0.016387   0.000976
    14  H    0.003141   0.376489  -0.073463   0.022400   0.001021   0.010465
    15  H    0.426250  -0.034442  -0.001358  -0.004093   0.025367  -0.084336
    16  H    0.364059  -0.065199   0.043179  -0.010228  -0.036054  -0.038570
              7          8          9         10         11         12
     1  C    0.025406  -0.036051   0.000919  -0.016326   0.014829  -0.032060
     2  C   -0.004193  -0.010189   0.022348  -0.054258  -0.030549  -0.062217
     3  C   -0.001213   0.042913  -0.073238   0.047328   0.347644   0.561662
     4  C   -0.034385  -0.065242   0.376931   0.488254  -0.030392  -0.062620
     5  C    0.426157   0.364372   0.002774  -0.135052   0.014786  -0.031753
     6  O   -0.084477  -0.038599   0.010422   0.001105   0.006227  -0.000280
     7  H    0.515289  -0.025956  -0.004602  -0.007671  -0.002432  -0.000161
     8  H   -0.025956   0.595021   0.002414   0.003159   0.008817  -0.011338
     9  H   -0.004602   0.002414   0.531180  -0.022412  -0.004172  -0.009158
    10  H   -0.007671   0.003159  -0.022412   0.510976  -0.003558   0.004786
    11  H   -0.002432   0.008817  -0.004172  -0.003558   0.542352  -0.027088
    12  H   -0.000161  -0.011338  -0.009158   0.004786  -0.027088   0.503947
    13  H   -0.000962   0.002570  -0.005195   0.009132  -0.003588   0.004806
    14  H    0.001127   0.000023   0.001927  -0.005212  -0.004080  -0.009183
    15  H    0.002488  -0.007679   0.001136  -0.000985  -0.002410  -0.000177
    16  H   -0.007680   0.029754   0.000001   0.002605   0.008810  -0.011348
             13         14         15         16
     1  C   -0.135351   0.003141   0.426250   0.364059
     2  C    0.488389   0.376489  -0.034442  -0.065199
     3  C    0.047723  -0.073463  -0.001358   0.043179
     4  C   -0.054393   0.022400  -0.004093  -0.010228
     5  C   -0.016387   0.001021   0.025367  -0.036054
     6  O    0.000976   0.010465  -0.084336  -0.038570
     7  H   -0.000962   0.001127   0.002488  -0.007680
     8  H    0.002570   0.000023  -0.007679   0.029754
     9  H   -0.005195   0.001927   0.001136   0.000001
    10  H    0.009132  -0.005212  -0.000985   0.002605
    11  H   -0.003588  -0.004080  -0.002410   0.008810
    12  H    0.004806  -0.009183  -0.000177  -0.011348
    13  H    0.511029  -0.022452  -0.007637   0.003158
    14  H   -0.022452   0.531119  -0.004650   0.002531
    15  H   -0.007637  -0.004650   0.514912  -0.025882
    16  H    0.003158   0.002531  -0.025882   0.595169
 Mulliken atomic charges:
              1
     1  C   -0.351369
     2  C   -0.292349
     3  C   -0.344950
     4  C   -0.292745
     5  C   -0.351513
     6  O   -0.106361
     7  H    0.203266
     8  H    0.146013
     9  H    0.168724
    10  H    0.178130
    11  H    0.164802
    12  H    0.182182
    13  H    0.178183
    14  H    0.168797
    15  H    0.203496
    16  H    0.145694
 Sum of Mulliken atomic charges =   0.00000
 Mulliken charges with hydrogens summed into heavy atoms:
              1
     1  C   -0.002180
     2  C    0.054630
     3  C    0.002034
     4  C    0.054109
     5  C   -0.002233
     6  O   -0.106361
 Sum of Mulliken charges with hydrogens summed into heavy atoms =   0.00000
 Electronic spatial extent (au):  <R**2>=            542.8022
 Charge=              0.0000 electrons
 Dipole moment (field-independent basis, Debye):
    X=              0.0001    Y=              1.4529    Z=              0.7538  Tot=              1.6368
 Quadrupole moment (field-independent basis, Debye-Ang):
   XX=            -35.6671   YY=            -41.8175   ZZ=            -38.7936
   XY=              0.0017   XZ=             -0.0011   YZ=             -1.3023
 Traceless Quadrupole moment (field-independent basis, Debye-Ang):
   XX=              3.0923   YY=             -3.0581   ZZ=             -0.0342
   XY=              0.0017   XZ=             -0.0011   YZ=             -1.3023
 Octapole moment (field-independent basis, Debye-Ang**2):
  XXX=             -0.0018  YYY=              1.6809  ZZZ=             -0.9075  XYY=             -0.0058
  XXY=             -5.1118  XXZ=             -0.7494  XZZ=              0.0068  YZZ=             -1.0115
  YYZ=              0.7664  XYZ=              0.0024
 Hexadecapole moment (field-independent basis, Debye-Ang**3):
 XXXX=           -320.9008 YYYY=           -326.3926 ZZZZ=            -91.4289 XXXY=             -0.0055
 XXXZ=             -0.0081 YYYX=              0.0104 YYYZ=             -2.0084 ZZZX=             -0.0028
 ZZZY=             -0.6509 XXYY=           -101.3340 XXZZ=            -71.0689 YYZZ=            -69.9812
 XXYZ=              4.0024 YYXZ=             -0.0003 ZZXY=              0.0004
 N-N= 2.606271617030D+02 E-N=-1.153991271372D+03  KE= 2.705850049262D+02
 1\1\GINC-RR27\SP\RM062X\6-311++G(d,p)\C5H10O1\HMAYES\06-Jun-2012\0\\# 
 m062x/6-311++G(d,p) geom=allcheck guess=read\\from http://6ring.bio.nr
 c.ca/suppl.html\\0,1\C,0,1.3653092515,-0.0589725954,-0.2470078311\C,0,
 0.7177088476,1.2279597137,0.2559804569\C,0,-0.7439312827,1.2835984909,
 -0.1952101107\C,0,-1.4576838573,-0.007290921,0.2139575671\C,0,-0.66938
 87824,-1.2150503211,-0.284639812\O,0,0.6603984894,-1.2018187247,0.1936
 223752\H,0,-1.1104631345,-2.1529952402,0.0633634222\H,0,-0.6666155959,
 -1.2259987422,-1.3889231572\H,0,-2.478000654,-0.0390707256,-0.18433846
 35\H,0,-1.5253883306,-0.061496518,1.3073439758\H,0,-1.2497635234,2.159
 9773163,0.2227456411\H,0,-0.7794882943,1.3834093435,-1.2892415357\H,0,
 0.7666718714,1.2379991889,1.3516733187\H,0,1.2788959617,2.0950146892,-
 0.1099741084\H,0,2.3872220785,-0.1664691455,0.1265342692\H,0,1.4027169
 55,-0.0485958088,-1.3506860076\\Version=EM64L-G09RevB.01\State=1-A\HF=
 -271.718573\RMSD=3.629e-09\Dipole=-0.2855207,0.5110549,-0.2683061\Quad
 rupole=1.1730779,-1.2372545,0.0641766,1.9948132,-0.3907467,0.7601229\P
 G=C01 [X(C5H10O1)]\\@


 AND ALL THIS SCIENCE I DON'T UNDERSTAND
 IT'S JUST MY JOB FIVE DAYS A WEEK

                           -- ELTON JOHN, "ROCKET MAN"
 Job cpu time:  0 days  0 hours  4 minutes 24.8 seconds.
 File lengths (MBytes):  RWF=     21 Int=      0 D2E=      0 Chk=      3 Scr=      1
 Normal termination of Gaussian 09 at Wed Jun  6 09:38:27 2012.
