 Entering Gaussian System, Link 0=g09
 Initial command:
 /projects/nrel/apps/gaussian/g09/C.01/g09/l1.exe /scratch/hbmayes/aglc_1c4_Na1b3lwatmwatca.2511023.scr/Gau-16328.inp -scrdir=/scratch/hbmayes/aglc_1c4_Na1b3lwatmwatca.2511023.scr/
 Default is to use a total of   8 processors:
                                8 via shared-memory
                                1 via Linda
 Entering Link 1 = /projects/nrel/apps/gaussian/g09/C.01/g09/l1.exe PID=     16329.
  
 Copyright (c) 1988,1990,1992,1993,1995,1998,2003,2009,2011,
            Gaussian, Inc.  All Rights Reserved.
  
 This is part of the Gaussian(R) 09 program.  It is based on
 the Gaussian(R) 03 system (copyright 2003, Gaussian, Inc.),
 the Gaussian(R) 98 system (copyright 1998, Gaussian, Inc.),
 the Gaussian(R) 94 system (copyright 1995, Gaussian, Inc.),
 the Gaussian 92(TM) system (copyright 1992, Gaussian, Inc.),
 the Gaussian 90(TM) system (copyright 1990, Gaussian, Inc.),
 the Gaussian 88(TM) system (copyright 1988, Gaussian, Inc.),
 the Gaussian 86(TM) system (copyright 1986, Carnegie Mellon
 University), and the Gaussian 82(TM) system (copyright 1983,
 Carnegie Mellon University). Gaussian is a federally registered
 trademark of Gaussian, Inc.
  
 This software contains proprietary and confidential information,
 including trade secrets, belonging to Gaussian, Inc.
  
 This software is provided under written license and may be
 used, copied, transmitted, or stored only in accord with that
 written license.
  
 The following legend is applicable only to US Government
 contracts under FAR:
  
                    RESTRICTED RIGHTS LEGEND
  
 Use, reproduction and disclosure by the US Government is
 subject to restrictions as set forth in subparagraphs (a)
 and (c) of the Commercial Computer Software - Restricted
 Rights clause in FAR 52.227-19.
  
 Gaussian, Inc.
 340 Quinnipiac St., Bldg. 40, Wallingford CT 06492
  
  
 ---------------------------------------------------------------
 Warning -- This program may not be used in any manner that
 competes with the business of Gaussian, Inc. or will provide
 assistance to any competitor of Gaussian, Inc.  The licensee
 of this program is prohibited from giving any competitor of
 Gaussian, Inc. access to this program.  By using this program,
 the user acknowledges that Gaussian, Inc. is engaged in the
 business of creating and licensing software in the field of
 computational chemistry and represents and warrants to the
 licensee that it is not a competitor of Gaussian, Inc. and that
 it will not use this program in any manner prohibited above.
 ---------------------------------------------------------------
  

 Cite this work as:
 Gaussian 09, Revision C.01,
 M. J. Frisch, G. W. Trucks, H. B. Schlegel, G. E. Scuseria, 
 M. A. Robb, J. R. Cheeseman, G. Scalmani, V. Barone, B. Mennucci, 
 G. A. Petersson, H. Nakatsuji, M. Caricato, X. Li, H. P. Hratchian, 
 A. F. Izmaylov, J. Bloino, G. Zheng, J. L. Sonnenberg, M. Hada, 
 M. Ehara, K. Toyota, R. Fukuda, J. Hasegawa, M. Ishida, T. Nakajima, 
 Y. Honda, O. Kitao, H. Nakai, T. Vreven, J. A. Montgomery, Jr., 
 J. E. Peralta, F. Ogliaro, M. Bearpark, J. J. Heyd, E. Brothers, 
 K. N. Kudin, V. N. Staroverov, T. Keith, R. Kobayashi, J. Normand, 
 K. Raghavachari, A. Rendell, J. C. Burant, S. S. Iyengar, J. Tomasi, 
 M. Cossi, N. Rega, J. M. Millam, M. Klene, J. E. Knox, J. B. Cross, 
 V. Bakken, C. Adamo, J. Jaramillo, R. Gomperts, R. E. Stratmann, 
 O. Yazyev, A. J. Austin, R. Cammi, C. Pomelli, J. W. Ochterski, 
 R. L. Martin, K. Morokuma, V. G. Zakrzewski, G. A. Voth, 
 P. Salvador, J. J. Dannenberg, S. Dapprich, A. D. Daniels, 
 O. Farkas, J. B. Foresman, J. V. Ortiz, J. Cioslowski, 
 and D. J. Fox, Gaussian, Inc., Wallingford CT, 2010.
 
 ******************************************
 Gaussian 09:  EM64L-G09RevC.01 23-Sep-2011
                11-Jul-2013 
 ******************************************
 %RWF=/dev/shm/,2GB,/scratch/hbmayes/aglc_1c4_Na1b3lwatmwatca.2511023.scr/,-1
 %NoSave
 %CHK=/scratch/hbmayes/glucose/aglc_1c4_Na1b3lwatmwatca.chk
 %mem=10GB
 %nproc=8
 Will use up to    8 processors via shared memory.
 Default route:  MaxDisk=16GB
 ----------------------------------------------------------------------
 # opt(Tight) freq=noraman m062x/6-311+G(2df,p) Int=(Grid=Ultrafine) no
 symm scrf=(cpcm,solvent=water) scf=(xqc,maxcycle=1000)
 ----------------------------------------------------------------------
 1/7=10,14=-1,18=20,19=15,26=3,38=1/1,3;
 2/9=110,12=2,15=1,17=6,18=5,40=1/2;
 3/5=4,6=6,7=114,11=2,16=1,25=1,30=1,70=2101,71=1,72=1,74=-55,75=-5/1,2,3;
 4//1;
 5/5=2,7=1000,8=3,13=1,38=5,53=1/2,8;
 6/7=2,8=2,9=2,10=2,28=1/1;
 7/30=1/1,2,3,16;
 1/7=10,14=-1,18=20,19=15/3(2);
 2/9=110,15=1/2;
 99//99;
 2/9=110,15=1/2;
 3/5=4,6=6,7=114,11=2,16=1,25=1,30=1,70=2105,71=1,72=1,74=-55,75=-5/1,2,3;
 4/5=5,16=3/1;
 5/5=2,7=1000,8=3,13=1,38=5,53=1/2,8;
 7/30=1/1,2,3,16;
 1/7=10,14=-1,18=20,19=15/3(-5);
 2/9=110,15=1/2;
 6/7=2,8=2,9=2,10=2,19=2,28=1/1;
 99/9=1/99;
 -------------
 try with Ca2+
 -------------
 Charge =  2 Multiplicity = 1
 Symbolic Z-Matrix:
 6                    -29.34267   36.84011  -2.12043 
 1                    -28.74612   37.60559  -2.62307 
 8                    -30.54131   37.34985  -1.64818 
 1                    -30.37718   38.16562  -1.16316 
 6                    -27.3443   35.77797  -1.29171 
 1                    -27.02351   35.32355  -0.35083 
 8                    -28.6224   36.34064  -0.99486 
 6                    -29.67639   35.69612  -3.06723 
 1                    -30.13665   36.10337  -3.9713 
 8                    -30.55853   34.79145  -2.42142 
 1                    -31.40954   35.23356  -2.31699 
 6                    -28.40974   34.93952  -3.48449 
 1                    -28.73185   33.98806  -3.91655 
 8                    -27.72858   35.63165  -4.50003 
 1                    -27.20473   36.34839  -4.10317 
 6                    -27.50233   34.62061  -2.28322 
 1                    -26.51823   34.32359  -2.65922 
 8                    -28.07599   33.5747  -1.5055 
 1                    -28.22784   32.80077  -2.05854 
 6                    -26.27212   36.80494  -1.6025 
 1                    -26.3032   37.57114  -0.8239 
 1                    -25.30411   36.29838  -1.55806 
 8                    -26.46055   37.39893  -2.88067 
 1                    -25.72139   37.98229  -3.07995 
 20                   -29.88554   34.36051  -0.14444 
 

 GradGradGradGradGradGradGradGradGradGradGradGradGradGradGradGradGradGrad
 Berny optimization.
 Initialization pass.
                           ----------------------------
                           !    Initial Parameters    !
                           ! (Angstroms and Degrees)  !
 --------------------------                            --------------------------
 ! Name  Definition              Value          Derivative Info.                !
 --------------------------------------------------------------------------------
 ! R1    R(1,2)                  1.0929         estimate D2E/DX2                !
 ! R2    R(1,3)                  1.3855         estimate D2E/DX2                !
 ! R3    R(1,7)                  1.4266         estimate D2E/DX2                !
 ! R4    R(1,8)                  1.522          estimate D2E/DX2                !
 ! R5    R(3,4)                  0.9632         estimate D2E/DX2                !
 ! R6    R(5,6)                  1.093          estimate D2E/DX2                !
 ! R7    R(5,7)                  1.4277         estimate D2E/DX2                !
 ! R8    R(5,16)                 1.5322         estimate D2E/DX2                !
 ! R9    R(5,20)                 1.5169         estimate D2E/DX2                !
 ! R10   R(7,25)                 2.4979         estimate D2E/DX2                !
 ! R11   R(8,9)                  1.0932         estimate D2E/DX2                !
 ! R12   R(8,10)                 1.419          estimate D2E/DX2                !
 ! R13   R(8,12)                 1.5333         estimate D2E/DX2                !
 ! R14   R(10,11)                0.9647         estimate D2E/DX2                !
 ! R15   R(10,25)                2.4131         estimate D2E/DX2                !
 ! R16   R(12,13)                1.0935         estimate D2E/DX2                !
 ! R17   R(12,14)                1.4051         estimate D2E/DX2                !
 ! R18   R(12,16)                1.5389         estimate D2E/DX2                !
 ! R19   R(14,15)                0.9724         estimate D2E/DX2                !
 ! R20   R(16,17)                1.0946         estimate D2E/DX2                !
 ! R21   R(16,18)                1.424          estimate D2E/DX2                !
 ! R22   R(18,19)                0.9633         estimate D2E/DX2                !
 ! R23   R(18,25)                2.3968         estimate D2E/DX2                !
 ! R24   R(20,21)                1.0928         estimate D2E/DX2                !
 ! R25   R(20,22)                1.0934         estimate D2E/DX2                !
 ! R26   R(20,23)                1.422          estimate D2E/DX2                !
 ! R27   R(23,24)                0.9625         estimate D2E/DX2                !
 ! A1    A(2,1,3)              111.7958         estimate D2E/DX2                !
 ! A2    A(2,1,7)              109.42           estimate D2E/DX2                !
 ! A3    A(2,1,8)              111.1016         estimate D2E/DX2                !
 ! A4    A(3,1,7)              107.2578         estimate D2E/DX2                !
 ! A5    A(3,1,8)              107.3906         estimate D2E/DX2                !
 ! A6    A(7,1,8)              109.7769         estimate D2E/DX2                !
 ! A7    A(1,3,4)              109.6237         estimate D2E/DX2                !
 ! A8    A(6,5,7)              104.3363         estimate D2E/DX2                !
 ! A9    A(6,5,16)             105.86           estimate D2E/DX2                !
 ! A10   A(6,5,20)             104.5007         estimate D2E/DX2                !
 ! A11   A(7,5,16)             109.8724         estimate D2E/DX2                !
 ! A12   A(7,5,20)             114.1142         estimate D2E/DX2                !
 ! A13   A(16,5,20)            116.8554         estimate D2E/DX2                !
 ! A14   A(1,7,5)              115.2092         estimate D2E/DX2                !
 ! A15   A(1,7,25)             106.9082         estimate D2E/DX2                !
 ! A16   A(5,7,25)             102.1847         estimate D2E/DX2                !
 ! A17   A(1,8,9)              109.0724         estimate D2E/DX2                !
 ! A18   A(1,8,10)             109.4129         estimate D2E/DX2                !
 ! A19   A(1,8,12)             111.0418         estimate D2E/DX2                !
 ! A20   A(9,8,10)             110.619          estimate D2E/DX2                !
 ! A21   A(9,8,12)             107.8534         estimate D2E/DX2                !
 ! A22   A(10,8,12)            108.8331         estimate D2E/DX2                !
 ! A23   A(8,10,11)            107.7884         estimate D2E/DX2                !
 ! A24   A(8,10,25)            111.71           estimate D2E/DX2                !
 ! A25   A(11,10,25)           103.0452         estimate D2E/DX2                !
 ! A26   A(8,12,13)            107.0697         estimate D2E/DX2                !
 ! A27   A(8,12,14)            110.7376         estimate D2E/DX2                !
 ! A28   A(8,12,16)            112.1442         estimate D2E/DX2                !
 ! A29   A(13,12,14)           106.6092         estimate D2E/DX2                !
 ! A30   A(13,12,16)           107.5666         estimate D2E/DX2                !
 ! A31   A(14,12,16)           112.3599         estimate D2E/DX2                !
 ! A32   A(12,14,15)           109.2234         estimate D2E/DX2                !
 ! A33   A(5,16,12)            114.1695         estimate D2E/DX2                !
 ! A34   A(5,16,17)            109.5447         estimate D2E/DX2                !
 ! A35   A(5,16,18)            104.0599         estimate D2E/DX2                !
 ! A36   A(12,16,17)           108.5557         estimate D2E/DX2                !
 ! A37   A(12,16,18)           109.9377         estimate D2E/DX2                !
 ! A38   A(17,16,18)           110.5172         estimate D2E/DX2                !
 ! A39   A(16,18,19)           109.8809         estimate D2E/DX2                !
 ! A40   A(16,18,25)           111.9298         estimate D2E/DX2                !
 ! A41   A(19,18,25)           118.0622         estimate D2E/DX2                !
 ! A42   A(5,20,21)            107.9758         estimate D2E/DX2                !
 ! A43   A(5,20,22)            107.6847         estimate D2E/DX2                !
 ! A44   A(5,20,23)            111.9201         estimate D2E/DX2                !
 ! A45   A(21,20,22)           108.7257         estimate D2E/DX2                !
 ! A46   A(21,20,23)           110.1068         estimate D2E/DX2                !
 ! A47   A(22,20,23)           110.3255         estimate D2E/DX2                !
 ! A48   A(20,23,24)           109.7261         estimate D2E/DX2                !
 ! A49   A(7,25,10)             71.2295         estimate D2E/DX2                !
 ! A50   A(7,25,18)             71.6262         estimate D2E/DX2                !
 ! A51   A(10,25,18)            74.5306         estimate D2E/DX2                !
 ! D1    D(2,1,3,4)            -48.5156         estimate D2E/DX2                !
 ! D2    D(7,1,3,4)             71.4314         estimate D2E/DX2                !
 ! D3    D(8,1,3,4)           -170.6265         estimate D2E/DX2                !
 ! D4    D(2,1,7,5)            -58.1833         estimate D2E/DX2                !
 ! D5    D(2,1,7,25)          -170.9465         estimate D2E/DX2                !
 ! D6    D(3,1,7,5)           -179.6352         estimate D2E/DX2                !
 ! D7    D(3,1,7,25)            67.6017         estimate D2E/DX2                !
 ! D8    D(8,1,7,5)             63.9867         estimate D2E/DX2                !
 ! D9    D(8,1,7,25)           -48.7765         estimate D2E/DX2                !
 ! D10   D(2,1,8,9)            -53.1248         estimate D2E/DX2                !
 ! D11   D(2,1,8,10)          -174.2499         estimate D2E/DX2                !
 ! D12   D(2,1,8,12)            65.598          estimate D2E/DX2                !
 ! D13   D(3,1,8,9)             69.4171         estimate D2E/DX2                !
 ! D14   D(3,1,8,10)           -51.708          estimate D2E/DX2                !
 ! D15   D(3,1,8,12)          -171.8601         estimate D2E/DX2                !
 ! D16   D(7,1,8,9)           -174.2884         estimate D2E/DX2                !
 ! D17   D(7,1,8,10)            64.5865         estimate D2E/DX2                !
 ! D18   D(7,1,8,12)           -55.5656         estimate D2E/DX2                !
 ! D19   D(6,5,7,1)           -171.7256         estimate D2E/DX2                !
 ! D20   D(6,5,7,25)           -56.2255         estimate D2E/DX2                !
 ! D21   D(16,5,7,1)           -58.6275         estimate D2E/DX2                !
 ! D22   D(16,5,7,25)           56.8727         estimate D2E/DX2                !
 ! D23   D(20,5,7,1)            74.8494         estimate D2E/DX2                !
 ! D24   D(20,5,7,25)         -169.6505         estimate D2E/DX2                !
 ! D25   D(6,5,16,12)          158.9964         estimate D2E/DX2                !
 ! D26   D(6,5,16,17)          -79.0357         estimate D2E/DX2                !
 ! D27   D(6,5,16,18)           39.1487         estimate D2E/DX2                !
 ! D28   D(7,5,16,12)           46.8855         estimate D2E/DX2                !
 ! D29   D(7,5,16,17)          168.8535         estimate D2E/DX2                !
 ! D30   D(7,5,16,18)          -72.9622         estimate D2E/DX2                !
 ! D31   D(20,5,16,12)         -85.1787         estimate D2E/DX2                !
 ! D32   D(20,5,16,17)          36.7893         estimate D2E/DX2                !
 ! D33   D(20,5,16,18)         154.9736         estimate D2E/DX2                !
 ! D34   D(6,5,20,21)          -64.8927         estimate D2E/DX2                !
 ! D35   D(6,5,20,22)           52.3464         estimate D2E/DX2                !
 ! D36   D(6,5,20,23)          173.7657         estimate D2E/DX2                !
 ! D37   D(7,5,20,21)           48.4345         estimate D2E/DX2                !
 ! D38   D(7,5,20,22)          165.6736         estimate D2E/DX2                !
 ! D39   D(7,5,20,23)          -72.9071         estimate D2E/DX2                !
 ! D40   D(16,5,20,21)         178.5327         estimate D2E/DX2                !
 ! D41   D(16,5,20,22)         -64.2282         estimate D2E/DX2                !
 ! D42   D(16,5,20,23)          57.1912         estimate D2E/DX2                !
 ! D43   D(1,7,25,10)           19.445          estimate D2E/DX2                !
 ! D44   D(1,7,25,18)           98.8446         estimate D2E/DX2                !
 ! D45   D(5,7,25,10)         -101.9588         estimate D2E/DX2                !
 ! D46   D(5,7,25,18)          -22.5592         estimate D2E/DX2                !
 ! D47   D(1,8,10,11)           69.1303         estimate D2E/DX2                !
 ! D48   D(1,8,10,25)          -43.3828         estimate D2E/DX2                !
 ! D49   D(9,8,10,11)          -51.0529         estimate D2E/DX2                !
 ! D50   D(9,8,10,25)         -163.566          estimate D2E/DX2                !
 ! D51   D(12,8,10,11)        -169.3747         estimate D2E/DX2                !
 ! D52   D(12,8,10,25)          78.1122         estimate D2E/DX2                !
 ! D53   D(1,8,12,13)          164.3186         estimate D2E/DX2                !
 ! D54   D(1,8,12,14)          -79.8333         estimate D2E/DX2                !
 ! D55   D(1,8,12,16)           46.5548         estimate D2E/DX2                !
 ! D56   D(9,8,12,13)          -76.227          estimate D2E/DX2                !
 ! D57   D(9,8,12,14)           39.6211         estimate D2E/DX2                !
 ! D58   D(9,8,12,16)          166.0093         estimate D2E/DX2                !
 ! D59   D(10,8,12,13)          43.8228         estimate D2E/DX2                !
 ! D60   D(10,8,12,14)         159.6709         estimate D2E/DX2                !
 ! D61   D(10,8,12,16)         -73.941          estimate D2E/DX2                !
 ! D62   D(8,10,25,7)           13.4213         estimate D2E/DX2                !
 ! D63   D(8,10,25,18)         -62.0194         estimate D2E/DX2                !
 ! D64   D(11,10,25,7)        -102.0329         estimate D2E/DX2                !
 ! D65   D(11,10,25,18)       -177.4736         estimate D2E/DX2                !
 ! D66   D(8,12,14,15)          80.4622         estimate D2E/DX2                !
 ! D67   D(13,12,14,15)       -163.4037         estimate D2E/DX2                !
 ! D68   D(16,12,14,15)        -45.8059         estimate D2E/DX2                !
 ! D69   D(8,12,16,5)          -43.0053         estimate D2E/DX2                !
 ! D70   D(8,12,16,17)        -165.5147         estimate D2E/DX2                !
 ! D71   D(8,12,16,18)          73.485          estimate D2E/DX2                !
 ! D72   D(13,12,16,5)        -160.4728         estimate D2E/DX2                !
 ! D73   D(13,12,16,17)         77.0178         estimate D2E/DX2                !
 ! D74   D(13,12,16,18)        -43.9825         estimate D2E/DX2                !
 ! D75   D(14,12,16,5)          82.4994         estimate D2E/DX2                !
 ! D76   D(14,12,16,17)        -40.0101         estimate D2E/DX2                !
 ! D77   D(14,12,16,18)       -161.0104         estimate D2E/DX2                !
 ! D78   D(5,16,18,19)         178.9654         estimate D2E/DX2                !
 ! D79   D(5,16,18,25)          45.7415         estimate D2E/DX2                !
 ! D80   D(12,16,18,19)         56.2928         estimate D2E/DX2                !
 ! D81   D(12,16,18,25)        -76.931          estimate D2E/DX2                !
 ! D82   D(17,16,18,19)        -63.5214         estimate D2E/DX2                !
 ! D83   D(17,16,18,25)        163.2547         estimate D2E/DX2                !
 ! D84   D(16,18,25,7)         -14.0163         estimate D2E/DX2                !
 ! D85   D(16,18,25,10)         60.9203         estimate D2E/DX2                !
 ! D86   D(19,18,25,7)        -143.0708         estimate D2E/DX2                !
 ! D87   D(19,18,25,10)        -68.1341         estimate D2E/DX2                !
 ! D88   D(5,20,23,24)        -174.7571         estimate D2E/DX2                !
 ! D89   D(21,20,23,24)         65.139          estimate D2E/DX2                !
 ! D90   D(22,20,23,24)        -54.8727         estimate D2E/DX2                !
 --------------------------------------------------------------------------------
 Trust Radius=3.00D-01 FncErr=1.00D-07 GrdErr=1.00D-06
 Number of steps in this run=    150 maximum allowed number of steps=    150.
 GradGradGradGradGradGradGradGradGradGradGradGradGradGradGradGradGradGrad

                          Input orientation:                          
 ---------------------------------------------------------------------
 Center     Atomic      Atomic             Coordinates (Angstroms)
 Number     Number       Type             X           Y           Z
 ---------------------------------------------------------------------
      1          6           0      -29.342675   36.840109   -2.120431
      2          1           0      -28.746117   37.605586   -2.623073
      3          8           0      -30.541306   37.349847   -1.648175
      4          1           0      -30.377183   38.165621   -1.163164
      5          6           0      -27.344301   35.777967   -1.291714
      6          1           0      -27.023507   35.323555   -0.350834
      7          8           0      -28.622403   36.340642   -0.994860
      8          6           0      -29.676391   35.696120   -3.067231
      9          1           0      -30.136647   36.103373   -3.971301
     10          8           0      -30.558531   34.791455   -2.421418
     11          1           0      -31.409542   35.233556   -2.316985
     12          6           0      -28.409735   34.939519   -3.484494
     13          1           0      -28.731849   33.988061   -3.916546
     14          8           0      -27.728582   35.631653   -4.500026
     15          1           0      -27.204733   36.348388   -4.103172
     16          6           0      -27.502332   34.620611   -2.283215
     17          1           0      -26.518226   34.323593   -2.659216
     18          8           0      -28.075986   33.574696   -1.505503
     19          1           0      -28.227844   32.800768   -2.058541
     20          6           0      -26.272120   36.804942   -1.602497
     21          1           0      -26.303200   37.571143   -0.823901
     22          1           0      -25.304107   36.298378   -1.558063
     23          8           0      -26.460548   37.398927   -2.880665
     24          1           0      -25.721392   37.982290   -3.079947
     25         20           0      -29.885544   34.360514   -0.144439
 ---------------------------------------------------------------------
                    Distance matrix (angstroms):
                    1          2          3          4          5
     1  C    0.000000
     2  H    1.092925   0.000000
     3  O    1.385487   2.058770   0.000000
     4  H    1.934825   2.259502   0.963151   0.000000
     5  C    2.410066   2.660413   3.580323   3.862097   0.000000
     6  H    3.287849   3.652139   4.261908   4.470387   1.093002
     7  O    1.426594   2.065543   2.264399   2.537347   1.427680
     8  C    1.522008   2.169965   2.344485   3.196094   2.932201
     9  H    2.144503   2.451109   2.667276   3.492328   3.883719
    10  O    2.401225   3.353333   2.672746   3.605702   3.546930
    11  H    2.625183   3.579672   2.383239   3.315731   4.227736
    12  C    2.518588   2.821899   3.704773   4.434767   2.578067
    13  H    3.425393   3.841844   4.440861   5.266901   3.466814
    14  O    3.118996   2.907704   4.358516   4.956887   3.234555
    15  H    2.957000   2.479335   4.261766   4.691527   2.872134
    16  C    2.887825   3.251550   4.133687   4.699615   1.532162
    17  H    3.821080   3.966898   5.134743   5.647203   2.160478
    18  O    3.556060   4.236285   4.511089   5.146775   2.331410
    19  H    4.190818   4.865550   5.120022   5.848334   3.198810
    20  C    3.114129   2.793433   4.304063   4.346953   1.516851
    21  H    3.384348   3.034147   4.323187   4.131082   2.125611
    22  H    4.113364   3.832815   5.342468   5.420207   2.122301
    23  O    3.032637   2.309304   4.263101   4.344843   2.435836
    24  H    3.916496   3.082142   5.067694   5.038259   3.269656
    25  Ca   3.216775   4.239388   3.409891   3.969679   3.127831
                    6          7          8          9         10
     6  H    0.000000
     7  O    2.001425   0.000000
     8  C    3.815155   2.412679   0.000000
     9  H    4.838134   3.347900   1.093176   0.000000
    10  O    4.131204   2.860706   1.419036   2.073946   0.000000
    11  H    4.807406   3.277468   1.944389   2.261328   0.964665
    12  C    3.448034   2.864725   1.533288   2.138636   2.401953
    13  H    4.173282   3.752714   2.128605   2.539882   2.493515
    14  O    4.219935   3.686159   2.418888   2.510149   3.610423
    15  H    3.893991   3.416351   2.758210   2.945088   4.062056
    16  C    2.111279   2.423412   2.549104   3.462345   3.064089
    17  H    2.565903   3.356505   3.467609   4.240537   4.074249
    18  O    2.345097   2.865272   3.082325   4.089094   2.912462
    19  H    3.275843   3.717230   3.390989   4.267245   3.086522
    20  C    2.079844   2.471564   3.868332   4.586720   4.806046
    21  H    2.407132   2.630981   4.463929   5.172600   5.327905
    22  H    2.316035   3.366017   4.664458   5.405108   5.534001
    23  O    3.320262   3.057752   3.643625   4.047425   4.878861
    24  H    4.026467   3.931725   4.568233   4.880504   5.832067
    25  Ca   3.026764   2.497929   3.220295   4.212539   2.413142
                   11         12         13         14         15
    11  H    0.000000
    12  C    3.232395   0.000000
    13  H    3.358555   1.093480   0.000000
    14  O    4.298094   1.405106   2.012061   0.000000
    15  H    4.702524   1.954406   2.817456   0.972430   0.000000
    16  C    3.955140   1.538881   2.140000   2.446967   2.527058
    17  H    4.986996   2.153661   2.567798   2.562141   2.579941
    18  O    3.810894   2.427043   2.532618   3.649511   3.898760
    19  H    4.013534   2.576952   2.261829   3.771475   4.220531
    20  C    5.419673   3.404572   4.397716   3.448705   2.707690
    21  H    5.811053   4.294379   5.319893   4.393999   3.614071
    22  H    6.243889   3.899046   4.759141   3.870110   3.176863
    23  O    5.431308   3.195720   4.226803   2.711733   1.775378
    24  H    6.363387   4.080356   5.071155   3.401607   2.432473
    25  Ca   2.793694   3.697192   3.962136   5.023885   5.177833
                   16         17         18         19         20
    16  C    0.000000
    17  H    1.094560   0.000000
    18  O    1.424027   2.078104   0.000000
    19  H    1.971972   2.366981   0.963263   0.000000
    20  C    2.597711   2.708194   3.701058   4.479536   0.000000
    21  H    3.503306   3.736469   4.424810   5.290092   1.092814
    22  H    2.858836   2.566398   3.886453   4.586065   1.093449
    23  O    3.026764   3.083836   4.373266   4.994226   1.421983
    24  H    3.886826   3.768026   5.239263   5.845831   1.967818
    25  Ca   3.212742   4.202892   2.396770   2.973981   4.599782
                   21         22         23         24         25
    21  H    0.000000
    22  H    1.776826   0.000000
    23  O    2.069950   2.073123   0.000000
    24  H    2.365858   2.307773   0.962485   0.000000
    25  Ca   4.858291   5.171384   5.333806   6.250970   0.000000
 Symmetry turned off by external request.
 Stoichiometry    C6H12CaO6(2+)
 Framework group  C1[X(C6H12CaO6)]
 Deg. of freedom    69
 Full point group                 C1      NOp   1
 Rotational constants (GHZ):      0.9506291      0.6044689      0.5806850
 Standard basis: 6-311+G(2df,p) (5D, 7F)
 Integral buffers will be    131072 words long.
 Raffenetti 2 integral format.
 Two-electron integral symmetry is turned off.
   535 basis functions,   811 primitive gaussians,   601 cartesian basis functions
    57 alpha electrons       57 beta electrons
       nuclear repulsion energy      1167.4160034361 Hartrees.
 NAtoms=   25 NActive=   25 NUniq=   25 SFac= 1.00D+00 NAtFMM=   60 NAOKFM=F Big=F
 ------------------------------------------------------------------------------
 Polarizable Continuum Model (PCM)
 =================================
 Model                : C-PCM.
 Atomic radii         : UFF (Universal Force Field).
 Polarization charges : Total charges.
 Charge compensation  : None.
 Solution method      : Matrix inversion.
 Cavity type          : Scaled VdW (van der Waals Surface) (Alpha=1.100).
 Cavity algorithm     : GePol (No added spheres)
                        Default sphere list used, NSphG=   25.
                        Lebedev-Laikov grids with approx.  5.0 points / Ang**2.
                        Smoothing algorithm: Karplus/York (Gamma=1.0000).
                        Polarization charges: spherical gaussians, with
                                              point-specific exponents (IZeta= 3).
                        Self-potential: point-specific (ISelfS= 7).
                        Self-field    : sphere-specific E.n sum rule (ISelfD= 2).
 1st derivatives      : Analytical E(r).r(x)/FMM algorithm (CHGder, D1EAlg=3).
                        Cavity 1st derivative terms included.
 Solvent              : Water, Eps=  78.355300 Eps(inf)=   1.777849
 ------------------------------------------------------------------------------
 One-electron integrals computed using PRISM.
 NBasis=   535 RedAO= T  NBF=   535
 NBsUse=   535 1.00D-06 NBFU=   535
 Harris functional with IExCor= 1009 diagonalized for initial guess.
 ExpMin= 7.10D-03 ExpMax= 2.03D+05 ExpMxC= 6.92D+03 IAcc=3 IRadAn=         5 AccDes= 0.00D+00
 HarFok:  IExCor= 1009 AccDes= 0.00D+00 IRadAn=         5 IDoV= 1
 ScaDFX=  1.000000  1.000000  1.000000  1.000000
 FoFCou: FMM=F IPFlag=           0 FMFlag=      100000 FMFlg1=           0
         NFxFlg=           0 DoJE=T BraDBF=F KetDBF=T FulRan=T
         Omega=  0.000000  0.000000  1.000000  0.000000  0.000000 ICntrl=     500 IOpCl=  0
         NMat0=    1 NMatS0=    1 NMatT0=    0 NMatD0=    1 NMtDS0=    0 NMtDT0=    0
         I1Cent=           4 NGrid=           0.
 Symmetry not used in FoFCou.
 Requested convergence on RMS density matrix=1.00D-08 within 128 cycles.
 Requested convergence on MAX density matrix=1.00D-06.
 Requested convergence on             energy=1.00D-06.
 No special actions if energy rises.
 Error on total polarization charges =  0.00819
 SCF Done:  E(RM062X) =  -1364.65925609     A.U. after   13 cycles
             Convg  =    0.2121D-08             -V/T =  2.0026
 QCSCF skips out because SCF is already converged.

 **********************************************************************

            Population analysis using the SCF density.

 **********************************************************************

 Alpha  occ. eigenvalues -- -146.72564 -19.69003 -19.68782 -19.68730 -19.66796
 Alpha  occ. eigenvalues --  -19.66259 -19.63891 -15.83980 -12.95335 -12.95332
 Alpha  occ. eigenvalues --  -12.95324 -10.67403 -10.63524 -10.63362 -10.62619
 Alpha  occ. eigenvalues --  -10.62345 -10.61520  -1.93814  -1.25800  -1.21827
 Alpha  occ. eigenvalues --   -1.21293  -1.18972  -1.17931  -1.16949  -1.16721
 Alpha  occ. eigenvalues --   -1.16478  -1.16238  -0.92203  -0.90747  -0.82715
 Alpha  occ. eigenvalues --   -0.78536  -0.76112  -0.68952  -0.67941  -0.65516
 Alpha  occ. eigenvalues --   -0.64159  -0.63867  -0.62394  -0.61629  -0.58570
 Alpha  occ. eigenvalues --   -0.56277  -0.55339  -0.54610  -0.53738  -0.52592
 Alpha  occ. eigenvalues --   -0.50730  -0.49230  -0.48091  -0.47285  -0.46365
 Alpha  occ. eigenvalues --   -0.43593  -0.42941  -0.41959  -0.40678  -0.39256
 Alpha  occ. eigenvalues --   -0.37681  -0.37040
 Alpha virt. eigenvalues --   -0.01881  -0.00564  -0.00429  -0.00209   0.01880
 Alpha virt. eigenvalues --    0.02358   0.02601   0.02844   0.03222   0.03410
 Alpha virt. eigenvalues --    0.03627   0.04023   0.04452   0.05940   0.06178
 Alpha virt. eigenvalues --    0.06638   0.07041   0.07685   0.07973   0.08420
 Alpha virt. eigenvalues --    0.08985   0.09480   0.09764   0.10087   0.10384
 Alpha virt. eigenvalues --    0.11408   0.11510   0.11909   0.12048   0.12751
 Alpha virt. eigenvalues --    0.12964   0.13441   0.14222   0.14706   0.15315
 Alpha virt. eigenvalues --    0.15491   0.16220   0.16828   0.17232   0.18258
 Alpha virt. eigenvalues --    0.18784   0.19083   0.19500   0.20226   0.21087
 Alpha virt. eigenvalues --    0.21433   0.22319   0.22504   0.23168   0.23598
 Alpha virt. eigenvalues --    0.23712   0.24124   0.24512   0.25025   0.25326
 Alpha virt. eigenvalues --    0.26720   0.26820   0.26934   0.28004   0.28170
 Alpha virt. eigenvalues --    0.28447   0.28985   0.29240   0.29887   0.30852
 Alpha virt. eigenvalues --    0.31227   0.31636   0.32292   0.32473   0.33207
 Alpha virt. eigenvalues --    0.33935   0.34357   0.34488   0.35660   0.36240
 Alpha virt. eigenvalues --    0.36497   0.37205   0.37698   0.38000   0.39370
 Alpha virt. eigenvalues --    0.40272   0.40694   0.42232   0.42482   0.43790
 Alpha virt. eigenvalues --    0.44443   0.45636   0.46747   0.48245   0.50835
 Alpha virt. eigenvalues --    0.52341   0.53196   0.53489   0.54348   0.55876
 Alpha virt. eigenvalues --    0.56607   0.57304   0.58559   0.59497   0.59802
 Alpha virt. eigenvalues --    0.60581   0.60895   0.61613   0.62069   0.62844
 Alpha virt. eigenvalues --    0.63554   0.64793   0.65163   0.66711   0.66907
 Alpha virt. eigenvalues --    0.67575   0.68034   0.69194   0.69852   0.70372
 Alpha virt. eigenvalues --    0.70960   0.72331   0.72644   0.73953   0.74439
 Alpha virt. eigenvalues --    0.76348   0.77880   0.78087   0.79551   0.81023
 Alpha virt. eigenvalues --    0.82938   0.85192   0.86160   0.87524   0.89200
 Alpha virt. eigenvalues --    0.90389   0.92828   0.94395   0.97675   0.99051
 Alpha virt. eigenvalues --    0.99741   1.01807   1.02854   1.04498   1.05535
 Alpha virt. eigenvalues --    1.06845   1.07005   1.07896   1.08833   1.10732
 Alpha virt. eigenvalues --    1.11806   1.12832   1.14161   1.15597   1.16310
 Alpha virt. eigenvalues --    1.16958   1.18099   1.18291   1.19407   1.20592
 Alpha virt. eigenvalues --    1.22351   1.23311   1.23826   1.25582   1.26344
 Alpha virt. eigenvalues --    1.27516   1.28873   1.29702   1.30640   1.31556
 Alpha virt. eigenvalues --    1.33517   1.34496   1.36039   1.36661   1.38031
 Alpha virt. eigenvalues --    1.38820   1.39926   1.41645   1.42412   1.43944
 Alpha virt. eigenvalues --    1.45225   1.45368   1.47757   1.48506   1.49295
 Alpha virt. eigenvalues --    1.50004   1.51524   1.53237   1.55266   1.56593
 Alpha virt. eigenvalues --    1.57609   1.59670   1.61037   1.61959   1.64852
 Alpha virt. eigenvalues --    1.66359   1.67725   1.69648   1.71903   1.73244
 Alpha virt. eigenvalues --    1.74770   1.75375   1.76637   1.78376   1.78884
 Alpha virt. eigenvalues --    1.80481   1.84513   1.85317   1.87442   1.89385
 Alpha virt. eigenvalues --    1.90094   1.93003   1.94313   1.96177   1.98936
 Alpha virt. eigenvalues --    2.00691   2.02893   2.04300   2.05745   2.07178
 Alpha virt. eigenvalues --    2.08488   2.09705   2.10337   2.11944   2.13536
 Alpha virt. eigenvalues --    2.14351   2.16233   2.16853   2.18786   2.19890
 Alpha virt. eigenvalues --    2.21093   2.22136   2.23226   2.23627   2.24781
 Alpha virt. eigenvalues --    2.25765   2.26190   2.28355   2.30199   2.30361
 Alpha virt. eigenvalues --    2.30789   2.33696   2.34458   2.35480   2.35779
 Alpha virt. eigenvalues --    2.37613   2.39568   2.40650   2.41446   2.42227
 Alpha virt. eigenvalues --    2.46215   2.46794   2.47592   2.51724   2.52260
 Alpha virt. eigenvalues --    2.54688   2.57076   2.59400   2.59832   2.61482
 Alpha virt. eigenvalues --    2.61788   2.62677   2.65314   2.66411   2.67417
 Alpha virt. eigenvalues --    2.69024   2.71646   2.73662   2.74375   2.75908
 Alpha virt. eigenvalues --    2.79058   2.81971   2.87047   2.88566   2.92051
 Alpha virt. eigenvalues --    2.93460   2.94431   2.95325   2.96399   2.99931
 Alpha virt. eigenvalues --    3.00966   3.03203   3.04086   3.06474   3.07847
 Alpha virt. eigenvalues --    3.10133   3.12362   3.14625   3.17463   3.18307
 Alpha virt. eigenvalues --    3.20815   3.21801   3.24069   3.25313   3.27491
 Alpha virt. eigenvalues --    3.29613   3.31343   3.32438   3.32749   3.33218
 Alpha virt. eigenvalues --    3.33603   3.34060   3.34289   3.35173   3.36104
 Alpha virt. eigenvalues --    3.38500   3.40517   3.40994   3.41784   3.43786
 Alpha virt. eigenvalues --    3.45157   3.47311   3.49041   3.50007   3.50832
 Alpha virt. eigenvalues --    3.53509   3.55326   3.55475   3.56579   3.58829
 Alpha virt. eigenvalues --    3.60078   3.61741   3.62050   3.63851   3.66336
 Alpha virt. eigenvalues --    3.68307   3.69013   3.70598   3.70818   3.72972
 Alpha virt. eigenvalues --    3.75974   3.77503   3.78873   3.80320   3.80724
 Alpha virt. eigenvalues --    3.81577   3.83609   3.84371   3.87162   3.88362
 Alpha virt. eigenvalues --    3.90154   3.92502   3.95583   3.96241   4.00017
 Alpha virt. eigenvalues --    4.03104   4.03427   4.08132   4.11247   4.11965
 Alpha virt. eigenvalues --    4.14114   4.15338   4.18927   4.21416   4.25043
 Alpha virt. eigenvalues --    4.28555   4.31360   4.32429   4.35700   4.37286
 Alpha virt. eigenvalues --    4.40193   4.43821   4.44449   4.46912   4.51366
 Alpha virt. eigenvalues --    4.54052   4.61949   4.62281   4.67829   4.72212
 Alpha virt. eigenvalues --    4.76415   4.91189   4.93375   5.01990   5.11248
 Alpha virt. eigenvalues --    5.12505   5.13809   5.15201   5.15242   5.15832
 Alpha virt. eigenvalues --    5.16456   5.17309   5.19011   5.20139   5.21419
 Alpha virt. eigenvalues --    5.21764   5.23316   5.23958   5.25478   5.26895
 Alpha virt. eigenvalues --    5.29508   5.29926   5.30203   5.30923   5.31537
 Alpha virt. eigenvalues --    5.33162   5.33652   5.34851   5.35699   5.37478
 Alpha virt. eigenvalues --    5.38234   5.41594   5.42439   5.42949   5.45439
 Alpha virt. eigenvalues --    5.45793   5.46825   5.47931   5.51535   5.53017
 Alpha virt. eigenvalues --    5.56051   5.65839   5.68499   5.72560   5.74991
 Alpha virt. eigenvalues --    5.77111   5.79347   5.80864   5.85902   5.86158
 Alpha virt. eigenvalues --    5.87710   5.89644   5.91646   6.08116   6.25905
 Alpha virt. eigenvalues --    6.31290   6.31804   6.33239   6.38125   6.42971
 Alpha virt. eigenvalues --    6.49402   6.51249   6.54187   6.58535   6.63682
 Alpha virt. eigenvalues --    6.77829   6.91417   6.94563   6.95322   6.96004
 Alpha virt. eigenvalues --    7.01298   7.10373   7.11569   7.11979   7.12813
 Alpha virt. eigenvalues --    7.15455   7.17765   7.18882   7.21760   7.22415
 Alpha virt. eigenvalues --    7.25426   7.27636   7.29898   7.35176   7.42779
 Alpha virt. eigenvalues --    7.46155   7.48776   7.51614   7.52201   7.56427
 Alpha virt. eigenvalues --    7.58209   7.59905   7.61344   7.66464   7.75479
 Alpha virt. eigenvalues --    7.80751  14.92401  24.36972  24.38291  24.43088
 Alpha virt. eigenvalues --   24.49030  24.53033  24.56781  50.08033  50.10639
 Alpha virt. eigenvalues --   50.11008  50.13217  50.17402  50.23334 109.10884
 Alpha virt. eigenvalues --  109.15302 109.30496 318.03569
          Condensed to atoms (all electrons):
              1          2          3          4          5          6
     1  C    6.756355   0.434444   0.187310   0.077435  -0.093156   0.017215
     2  H    0.434444   0.430479  -0.030624  -0.003293   0.025257  -0.000211
     3  O    0.187310  -0.030624   7.990508   0.270373  -0.009566   0.000010
     4  H    0.077435  -0.003293   0.270373   0.382916   0.011126   0.000001
     5  C   -0.093156   0.025257  -0.009566   0.011126   9.020050   0.471119
     6  H    0.017215  -0.000211   0.000010   0.000001   0.471119   0.419941
     7  O   -0.009881  -0.031441  -0.013738   0.000129  -0.236983  -0.056367
     8  C   -1.940646  -0.075636   0.021660  -0.086812  -1.235000   0.000031
     9  H    0.033511  -0.003197  -0.004069   0.001022   0.007734   0.000070
    10  O    0.122306   0.005051   0.009902   0.002750   0.063560   0.000175
    11  H   -0.013341  -0.000247   0.001275   0.001580   0.013887   0.000042
    12  C    0.572201   0.029504   0.028844   0.007206   2.183321  -0.002680
    13  H    0.000766  -0.000339  -0.000738   0.000034  -0.002686  -0.000092
    14  O   -0.020787  -0.002837  -0.002794   0.000199  -0.046145  -0.000089
    15  H   -0.010632  -0.003429   0.000545   0.000030   0.029832  -0.000450
    16  C   -0.167893   0.000645  -0.015330  -0.005561  -3.720291  -0.059382
    17  H   -0.005030  -0.000139   0.000113   0.000005   0.010507  -0.001808
    18  O   -0.020614  -0.001430  -0.000542  -0.000051   0.050133   0.005793
    19  H    0.006016   0.000063   0.000040   0.000006  -0.065627   0.001165
    20  C   -0.028360  -0.009269   0.004007  -0.004031  -0.441990  -0.035993
    21  H   -0.002767  -0.000179  -0.000133   0.000043  -0.099106  -0.003648
    22  H   -0.003186  -0.000215   0.000105   0.000000  -0.007683  -0.006168
    23  O    0.022079  -0.005056  -0.001070  -0.000383  -0.005391   0.005365
    24  H    0.003326   0.002254  -0.000096  -0.000003  -0.033331   0.000240
    25  Ca   0.022665   0.000992  -0.002679   0.001312   0.003504   0.003460
              7          8          9         10         11         12
     1  C   -0.009881  -1.940646   0.033511   0.122306  -0.013341   0.572201
     2  H   -0.031441  -0.075636  -0.003197   0.005051  -0.000247   0.029504
     3  O   -0.013738   0.021660  -0.004069   0.009902   0.001275   0.028844
     4  H    0.000129  -0.086812   0.001022   0.002750   0.001580   0.007206
     5  C   -0.236983  -1.235000   0.007734   0.063560   0.013887   2.183321
     6  H   -0.056367   0.000031   0.000070   0.000175   0.000042  -0.002680
     7  O    8.404559   0.092676   0.001880   0.038691  -0.007864  -0.303008
     8  C    0.092676  10.310676   0.322470  -0.355125   0.019764  -2.966645
     9  H    0.001880   0.322470   0.449285  -0.014242  -0.003241  -0.005526
    10  O    0.038691  -0.355125  -0.014242   8.171463   0.293286   0.082766
    11  H   -0.007864   0.019764  -0.003241   0.293286   0.345130  -0.004179
    12  C   -0.303008  -2.966645  -0.005526   0.082766  -0.004179  10.474820
    13  H   -0.003948  -0.003515  -0.004490   0.004905   0.000102   0.332690
    14  O   -0.003562  -0.062805  -0.008594   0.003012   0.000012   0.319862
    15  H    0.000146  -0.010130  -0.001086  -0.000028   0.000023   0.022731
    16  C    0.491215   1.857950  -0.005874  -0.082039  -0.015165  -4.163537
    17  H   -0.003015  -0.005879  -0.000066  -0.000505   0.000023   0.008036
    18  O   -0.037794   0.062982  -0.001844  -0.036655   0.000500   0.042530
    19  H   -0.001029  -0.017939   0.000258   0.005603   0.000124  -0.051283
    20  C   -0.087083   0.256722  -0.003612  -0.000163  -0.003097  -0.321990
    21  H   -0.004598   0.006164  -0.000014  -0.000006  -0.000005  -0.015607
    22  H    0.004165  -0.002046  -0.000002  -0.000038   0.000002   0.018928
    23  O    0.002084  -0.027314   0.000070   0.000102  -0.000102  -0.007539
    24  H   -0.001401   0.003201  -0.000055   0.000091  -0.000003   0.000413
    25  Ca   0.051344  -0.185054   0.005076   0.076280   0.007422   0.150186
             13         14         15         16         17         18
     1  C    0.000766  -0.020787  -0.010632  -0.167893  -0.005030  -0.020614
     2  H   -0.000339  -0.002837  -0.003429   0.000645  -0.000139  -0.001430
     3  O   -0.000738  -0.002794   0.000545  -0.015330   0.000113  -0.000542
     4  H    0.000034   0.000199   0.000030  -0.005561   0.000005  -0.000051
     5  C   -0.002686  -0.046145   0.029832  -3.720291   0.010507   0.050133
     6  H   -0.000092  -0.000089  -0.000450  -0.059382  -0.001808   0.005793
     7  O   -0.003948  -0.003562   0.000146   0.491215  -0.003015  -0.037794
     8  C   -0.003515  -0.062805  -0.010130   1.857950  -0.005879   0.062982
     9  H   -0.004490  -0.008594  -0.001086  -0.005874  -0.000066  -0.001844
    10  O    0.004905   0.003012  -0.000028  -0.082039  -0.000505  -0.036655
    11  H    0.000102   0.000012   0.000023  -0.015165   0.000023   0.000500
    12  C    0.332690   0.319862   0.022731  -4.163537   0.008036   0.042530
    13  H    0.471671  -0.042344   0.003714   0.018422  -0.006029  -0.004472
    14  O   -0.042344   7.959115   0.320743  -0.026312  -0.008517   0.005201
    15  H    0.003714   0.320743   0.312755  -0.026317  -0.000457  -0.001158
    16  C    0.018422  -0.026312  -0.026317  11.533579   0.357106  -0.183082
    17  H   -0.006029  -0.008517  -0.000457   0.357106   0.430311  -0.014417
    18  O   -0.004472   0.005201  -0.001158  -0.183082  -0.014417   8.200413
    19  H    0.000925  -0.000565   0.000067   0.167506  -0.007390   0.254638
    20  C    0.007510   0.013840   0.005909   0.193199   0.005347  -0.002990
    21  H    0.000008  -0.000177  -0.000527   0.050388  -0.000204  -0.000670
    22  H   -0.000041  -0.002004   0.001686  -0.060400   0.000818  -0.000865
    23  O    0.000994  -0.027521   0.003481   0.060035  -0.001844   0.000787
    24  H    0.000087   0.004836  -0.000593  -0.009653   0.000594   0.000215
    25  Ca  -0.002064  -0.001433   0.000571  -0.133871   0.002364   0.079896
             19         20         21         22         23         24
     1  C    0.006016  -0.028360  -0.002767  -0.003186   0.022079   0.003326
     2  H    0.000063  -0.009269  -0.000179  -0.000215  -0.005056   0.002254
     3  O    0.000040   0.004007  -0.000133   0.000105  -0.001070  -0.000096
     4  H    0.000006  -0.004031   0.000043   0.000000  -0.000383  -0.000003
     5  C   -0.065627  -0.441990  -0.099106  -0.007683  -0.005391  -0.033331
     6  H    0.001165  -0.035993  -0.003648  -0.006168   0.005365   0.000240
     7  O   -0.001029  -0.087083  -0.004598   0.004165   0.002084  -0.001401
     8  C   -0.017939   0.256722   0.006164  -0.002046  -0.027314   0.003201
     9  H    0.000258  -0.003612  -0.000014  -0.000002   0.000070  -0.000055
    10  O    0.005603  -0.000163  -0.000006  -0.000038   0.000102   0.000091
    11  H    0.000124  -0.003097  -0.000005   0.000002  -0.000102  -0.000003
    12  C   -0.051283  -0.321990  -0.015607   0.018928  -0.007539   0.000413
    13  H    0.000925   0.007510   0.000008  -0.000041   0.000994   0.000087
    14  O   -0.000565   0.013840  -0.000177  -0.002004  -0.027521   0.004836
    15  H    0.000067   0.005909  -0.000527   0.001686   0.003481  -0.000593
    16  C    0.167506   0.193199   0.050388  -0.060400   0.060035  -0.009653
    17  H   -0.007390   0.005347  -0.000204   0.000818  -0.001844   0.000594
    18  O    0.254638  -0.002990  -0.000670  -0.000865   0.000787   0.000215
    19  H    0.350362   0.003702  -0.000001  -0.000033   0.000021   0.000003
    20  C    0.003702   5.969496   0.460803   0.456442   0.019993   0.053593
    21  H   -0.000001   0.460803   0.460700  -0.029049  -0.039497  -0.002545
    22  H   -0.000033   0.456442  -0.029049   0.461863  -0.048725  -0.006277
    23  O    0.000021   0.019993  -0.039497  -0.048725   8.300570   0.205335
    24  H    0.000003   0.053593  -0.002545  -0.006277   0.205335   0.390664
    25  Ca  -0.008922  -0.048764  -0.000404  -0.000187  -0.000975  -0.000125
             25
     1  C    0.022665
     2  H    0.000992
     3  O   -0.002679
     4  H    0.001312
     5  C    0.003504
     6  H    0.003460
     7  O    0.051344
     8  C   -0.185054
     9  H    0.005076
    10  O    0.076280
    11  H    0.007422
    12  C    0.150186
    13  H   -0.002064
    14  O   -0.001433
    15  H    0.000571
    16  C   -0.133871
    17  H    0.002364
    18  O    0.079896
    19  H   -0.008922
    20  C   -0.048764
    21  H   -0.000404
    22  H   -0.000187
    23  O   -0.000975
    24  H   -0.000125
    25  Ca  18.325389
 Mulliken atomic charges:
              1
     1  C    0.060664
     2  H    0.238854
     3  O   -0.433314
     4  H    0.343963
     5  C    0.106924
     6  H    0.242260
     7  O   -0.285176
     8  C    0.020248
     9  H    0.234534
    10  O   -0.391142
    11  H    0.364070
    12  C   -0.432041
    13  H    0.228927
    14  O   -0.370334
    15  H    0.352573
    16  C   -0.055341
    17  H    0.240076
    18  O   -0.396503
    19  H    0.362290
    20  C   -0.463220
    21  H    0.221031
    22  H    0.222909
    23  O   -0.455499
    24  H    0.389231
    25  Ca   1.654017
 Sum of Mulliken atomic charges =   2.00000
 Mulliken charges with hydrogens summed into heavy atoms:
              1
     1  C    0.299518
     3  O   -0.089352
     5  C    0.349184
     7  O   -0.285176
     8  C    0.254782
    10  O   -0.027072
    12  C   -0.203114
    14  O   -0.017762
    16  C    0.184736
    18  O   -0.034213
    20  C   -0.019280
    23  O   -0.066268
    25  Ca   1.654017
 Sum of Mulliken charges with hydrogens summed into heavy atoms =   2.00000
 Electronic spatial extent (au):  <R**2>=         853039.9208
 Charge=              2.0000 electrons
 Dipole moment (field-independent basis, Debye):
    X=           -281.0211    Y=            335.2277    Z=             -4.1315  Tot=            437.4557
 Quadrupole moment (field-independent basis, Debye-Ang):
   XX=           8173.8327   YY=          11647.4950   ZZ=            -75.2314
   XY=          -9792.7148   XZ=            112.4682   YZ=           -150.4239
 Traceless Quadrupole moment (field-independent basis, Debye-Ang):
   XX=           1591.8006   YY=           5065.4629   ZZ=          -6657.2636
   XY=          -9792.7148   XZ=            112.4682   YZ=           -150.4239
 Octapole moment (field-independent basis, Debye-Ang**2):
  XXX=        -236459.0002  YYY=         402793.1769  ZZZ=            534.2056  XYY=        -339780.1074
  XXY=         284418.3375  XXZ=          -2936.3211  XZZ=           2144.9008  YZZ=          -2676.3508
  YYZ=          -5355.1654  XYZ=           4082.4483
 Hexadecapole moment (field-independent basis, Debye-Ang**3):
 XXXX=        6804107.7805 YYYY=       13857190.5617 ZZZZ=          -3166.1961 XXXY=       -8215357.1785
 XXXZ=          72639.3712 YYYX=      -11734444.1746 YYYZ=        -186335.1706 ZZZX=         -15095.2879
 ZZZY=          19059.1054 XXYY=        9854053.1449 XXZZ=         -61669.2692 YYZZ=         -95678.1990
 XXYZ=        -106346.6124 YYXZ=         144694.6031 ZZXY=          76338.2292
 N-N= 1.167416003436D+03 E-N=-5.516827751501D+03  KE= 1.361177113580D+03
 D1PCM: C-PCM CHGder 1st derivatives, ID1Alg=3 FixD1E=F DoIter=F DoCFld=F I1PDM=0.
 Calling FoFJK, ICntrl=      2127 FMM=F ISym2X=0 I1Cent= 0 IOpClX= 0 NMat=1 NMatS=1 NMatT=0.
 -------------------------------------------------------------------
 Center     Atomic                   Forces (Hartrees/Bohr)
 Number     Number              X              Y              Z
 -------------------------------------------------------------------
      1        6          -0.006160215    0.008351887   -0.006902296
      2        1           0.000777184   -0.001164616    0.000787952
      3        8           0.003218723   -0.003840464   -0.000710388
      4        1          -0.000584232    0.000921159    0.000558747
      5        6           0.009545973   -0.001439665   -0.001375153
      6        1           0.001872545    0.001257996   -0.000387268
      7        8          -0.004444002   -0.007050353    0.003038836
      8        6           0.005814347    0.005703088   -0.006448874
      9        1          -0.000439337   -0.001041655    0.001340308
     10        8           0.000776422    0.000289717    0.006122492
     11        1          -0.004599770    0.000260398   -0.003006291
     12        6           0.001473168   -0.000392356   -0.003573929
     13        1          -0.000110340    0.000155255   -0.000063593
     14        8          -0.002101481   -0.001714689    0.003338133
     15        1           0.000682428    0.000772613   -0.000373811
     16        6           0.005342652    0.006592430   -0.005104741
     17        1          -0.001259546   -0.000698804    0.001194812
     18        8          -0.003263997    0.001944805    0.000391044
     19        1           0.000122162   -0.003548269    0.000285929
     20        6           0.000460239    0.001771218   -0.000599991
     21        1          -0.000089759   -0.000368747    0.000077675
     22        1          -0.000640731   -0.000301428    0.000311882
     23        8          -0.001390823   -0.001608980    0.001199801
     24        1           0.000191579    0.000199287   -0.000120528
     25       20          -0.005193191   -0.005049826    0.010019253
 -------------------------------------------------------------------
 Cartesian Forces:  Max     0.010019253 RMS     0.003406928

 GradGradGradGradGradGradGradGradGradGradGradGradGradGradGradGradGradGrad
 Berny optimization.
 Internal  Forces:  Max     0.006835244 RMS     0.001635064
 Search for a local minimum.
 Step number   1 out of a maximum of  150
 All quantities printed in internal units (Hartrees-Bohrs-Radians)
 Mixed Optimization -- RFO/linear search
 Second derivative matrix not updated -- first step.
 ITU=  0
     Eigenvalues ---    0.00543   0.00836   0.01401   0.01408   0.01624
     Eigenvalues ---    0.01638   0.01762   0.01884   0.02029   0.03299
     Eigenvalues ---    0.03683   0.04078   0.04424   0.04526   0.04699
     Eigenvalues ---    0.05072   0.05077   0.05247   0.05349   0.05533
     Eigenvalues ---    0.05762   0.05804   0.06154   0.06191   0.06797
     Eigenvalues ---    0.06949   0.07359   0.07563   0.08051   0.08441
     Eigenvalues ---    0.08899   0.09149   0.10140   0.10909   0.11376
     Eigenvalues ---    0.12418   0.13260   0.13893   0.14335   0.16000
     Eigenvalues ---    0.16000   0.16000   0.16880   0.18042   0.22107
     Eigenvalues ---    0.24662   0.26320   0.27702   0.28457   0.30672
     Eigenvalues ---    0.34291   0.34414   0.34417   0.34448   0.34468
     Eigenvalues ---    0.34477   0.34489   0.36307   0.37549   0.38016
     Eigenvalues ---    0.40291   0.42163   0.44785   0.48113   0.52884
     Eigenvalues ---    0.54482   0.54777   0.54801   0.54942
 RFO step:  Lambda=-3.44869744D-03 EMin= 5.43045965D-03
 Linear search not attempted -- first point.
 Iteration  1 RMS(Cart)=  0.03002033 RMS(Int)=  0.00044289
 Iteration  2 RMS(Cart)=  0.00054903 RMS(Int)=  0.00017601
 Iteration  3 RMS(Cart)=  0.00000014 RMS(Int)=  0.00017601
 Variable       Old X    -DE/DX   Delta X   Delta X   Delta X     New X
                                 (Linear)    (Quad)   (Total)
    R1        2.06533  -0.00073   0.00000  -0.00209  -0.00209   2.06324
    R2        2.61819  -0.00343   0.00000  -0.00709  -0.00709   2.61111
    R3        2.69587   0.00684   0.00000   0.01713   0.01706   2.71293
    R4        2.87618  -0.00249   0.00000  -0.00560  -0.00553   2.87065
    R5        1.82009   0.00097   0.00000   0.00177   0.00177   1.82186
    R6        2.06548  -0.00031   0.00000  -0.00088  -0.00088   2.06460
    R7        2.69792   0.00673   0.00000   0.01672   0.01665   2.71458
    R8        2.89537  -0.00160   0.00000  -0.00372  -0.00372   2.89164
    R9        2.86643  -0.00143   0.00000  -0.00462  -0.00462   2.86181
   R10        4.72040   0.00429   0.00000   0.04394   0.04393   4.76433
   R11        2.06580  -0.00131   0.00000  -0.00376  -0.00376   2.06205
   R12        2.68159   0.00612   0.00000   0.01667   0.01661   2.69820
   R13        2.89749   0.00016   0.00000   0.00444   0.00440   2.90190
   R14        1.82295   0.00387   0.00000   0.00706   0.00706   1.83001
   R15        4.56018   0.00360   0.00000   0.05515   0.05526   4.61544
   R16        2.06638  -0.00007   0.00000  -0.00019  -0.00019   2.06619
   R17        2.65527  -0.00332   0.00000  -0.00737  -0.00737   2.64790
   R18        2.90806   0.00015   0.00000   0.00110   0.00099   2.90905
   R19        1.83763   0.00076   0.00000   0.00143   0.00143   1.83906
   R20        2.06842  -0.00137   0.00000  -0.00396  -0.00396   2.06446
   R21        2.69102   0.00603   0.00000   0.01675   0.01675   2.70778
   R22        1.82030   0.00264   0.00000   0.00479   0.00479   1.82510
   R23        4.52924   0.00355   0.00000   0.03851   0.03858   4.56781
   R24        2.06512  -0.00021   0.00000  -0.00061  -0.00061   2.06451
   R25        2.06632  -0.00040   0.00000  -0.00116  -0.00116   2.06516
   R26        2.68716  -0.00140   0.00000  -0.00330  -0.00330   2.68386
   R27        1.81883   0.00029   0.00000   0.00053   0.00053   1.81936
    A1        1.95121   0.00096   0.00000   0.01795   0.01795   1.96916
    A2        1.90974   0.00040   0.00000  -0.00150  -0.00135   1.90839
    A3        1.93909   0.00049   0.00000   0.00757   0.00748   1.94657
    A4        1.87200  -0.00031   0.00000  -0.00569  -0.00593   1.86607
    A5        1.87432  -0.00022   0.00000  -0.00673  -0.00677   1.86755
    A6        1.91597  -0.00141   0.00000  -0.01258  -0.01265   1.90332
    A7        1.91329   0.00133   0.00000   0.00816   0.00816   1.92145
    A8        1.82101   0.00014   0.00000   0.01601   0.01609   1.83710
    A9        1.84761   0.00092   0.00000   0.01238   0.01250   1.86011
   A10        1.82388  -0.00086   0.00000  -0.00192  -0.00193   1.82195
   A11        1.91763  -0.00227   0.00000  -0.01688  -0.01693   1.90070
   A12        1.99167   0.00142   0.00000  -0.00522  -0.00533   1.98634
   A13        2.03951   0.00069   0.00000   0.00086   0.00062   2.04013
   A14        2.01078  -0.00158   0.00000  -0.00745  -0.00797   2.00281
   A15        1.86590   0.00168   0.00000   0.01711   0.01695   1.88285
   A16        1.78346   0.00240   0.00000   0.03151   0.03156   1.81502
   A17        1.90367   0.00055   0.00000   0.00852   0.00835   1.91202
   A18        1.90962  -0.00223   0.00000  -0.01857  -0.01861   1.89100
   A19        1.93805   0.00156   0.00000   0.00908   0.00911   1.94716
   A20        1.93067   0.00051   0.00000  -0.00679  -0.00673   1.92393
   A21        1.88240  -0.00048   0.00000   0.00377   0.00369   1.88608
   A22        1.89950   0.00014   0.00000   0.00429   0.00433   1.90383
   A23        1.88126  -0.00027   0.00000   0.01386   0.01289   1.89415
   A24        1.94971   0.00259   0.00000   0.02140   0.02117   1.97087
   A25        1.79848   0.00145   0.00000   0.03034   0.02980   1.82828
   A26        1.86872  -0.00015   0.00000  -0.00030  -0.00025   1.86847
   A27        1.93274  -0.00016   0.00000  -0.00203  -0.00197   1.93077
   A28        1.95729   0.00023   0.00000   0.00016  -0.00001   1.95727
   A29        1.86068   0.00015   0.00000   0.00171   0.00168   1.86236
   A30        1.87739  -0.00001   0.00000   0.00257   0.00266   1.88005
   A31        1.96105  -0.00007   0.00000  -0.00179  -0.00177   1.95928
   A32        1.90631   0.00140   0.00000   0.00857   0.00857   1.91488
   A33        1.99263   0.00201   0.00000   0.00140   0.00120   1.99383
   A34        1.91192  -0.00024   0.00000   0.00200   0.00196   1.91387
   A35        1.81619  -0.00134   0.00000  -0.00202  -0.00184   1.81435
   A36        1.89465  -0.00045   0.00000   0.00702   0.00709   1.90175
   A37        1.91877  -0.00108   0.00000  -0.00407  -0.00406   1.91471
   A38        1.92889   0.00113   0.00000  -0.00509  -0.00514   1.92375
   A39        1.91778   0.00021   0.00000   0.01784   0.01732   1.93511
   A40        1.95354   0.00270   0.00000   0.02797   0.02783   1.98137
   A41        2.06057  -0.00162   0.00000  -0.00088  -0.00190   2.05867
   A42        1.88453   0.00056   0.00000   0.00157   0.00159   1.88612
   A43        1.87945   0.00002   0.00000  -0.00298  -0.00298   1.87647
   A44        1.95337  -0.00285   0.00000  -0.01348  -0.01349   1.93988
   A45        1.89762  -0.00009   0.00000   0.00263   0.00261   1.90023
   A46        1.92173   0.00107   0.00000   0.00587   0.00586   1.92758
   A47        1.92554   0.00131   0.00000   0.00648   0.00643   1.93197
   A48        1.91508   0.00013   0.00000   0.00077   0.00077   1.91585
   A49        1.24319  -0.00199   0.00000  -0.02635  -0.02611   1.21708
   A50        1.25011  -0.00208   0.00000  -0.02728  -0.02712   1.22299
   A51        1.30080  -0.00163   0.00000  -0.01556  -0.01550   1.28531
    D1       -0.84676   0.00014   0.00000   0.00709   0.00707  -0.83969
    D2        1.24671   0.00101   0.00000   0.01218   0.01219   1.25890
    D3       -2.97799  -0.00092   0.00000  -0.00896  -0.00895  -2.98695
    D4       -1.01549   0.00152   0.00000   0.02193   0.02182  -0.99367
    D5       -2.98358  -0.00166   0.00000  -0.02365  -0.02374  -3.00732
    D6       -3.13522   0.00031   0.00000   0.00453   0.00449  -3.13074
    D7        1.17987  -0.00287   0.00000  -0.04104  -0.04107   1.13880
    D8        1.11678   0.00148   0.00000   0.02228   0.02215   1.13893
    D9       -0.85131  -0.00170   0.00000  -0.02330  -0.02340  -0.87471
   D10       -0.92720  -0.00113   0.00000  -0.01477  -0.01488  -0.94208
   D11       -3.04124  -0.00072   0.00000  -0.00028  -0.00035  -3.04159
   D12        1.14490  -0.00044   0.00000   0.00073   0.00069   1.14559
   D13        1.21156   0.00022   0.00000   0.00769   0.00758   1.21913
   D14       -0.90248   0.00063   0.00000   0.02218   0.02210  -0.88038
   D15       -2.99952   0.00091   0.00000   0.02318   0.02314  -2.97638
   D16       -3.04191  -0.00102   0.00000  -0.00943  -0.00958  -3.05149
   D17        1.12725  -0.00061   0.00000   0.00506   0.00495   1.13219
   D18       -0.96980  -0.00032   0.00000   0.00607   0.00599  -0.96381
   D19       -2.99718  -0.00154   0.00000  -0.05329  -0.05320  -3.05037
   D20       -0.98132   0.00124   0.00000  -0.01656  -0.01654  -0.99785
   D21       -1.02324  -0.00139   0.00000  -0.03833  -0.03828  -1.06153
   D22        0.99262   0.00139   0.00000  -0.00160  -0.00162   0.99099
   D23        1.30637  -0.00127   0.00000  -0.05812  -0.05798   1.24839
   D24       -2.96096   0.00151   0.00000  -0.02139  -0.02132  -2.98228
   D25        2.77501   0.00055   0.00000   0.04187   0.04188   2.81689
   D26       -1.37943   0.00118   0.00000   0.05347   0.05345  -1.32599
   D27        0.68327   0.00166   0.00000   0.04742   0.04741   0.73068
   D28        0.81831   0.00094   0.00000   0.02475   0.02481   0.84311
   D29        2.94705   0.00158   0.00000   0.03636   0.03638   2.98342
   D30       -1.27343   0.00206   0.00000   0.03031   0.03034  -1.24309
   D31       -1.48665   0.00050   0.00000   0.04862   0.04863  -1.43801
   D32        0.64209   0.00114   0.00000   0.06022   0.06020   0.70230
   D33        2.70480   0.00162   0.00000   0.05417   0.05416   2.75896
   D34       -1.13259   0.00011   0.00000  -0.00062  -0.00061  -1.13320
   D35        0.91362   0.00031   0.00000   0.00172   0.00171   0.91533
   D36        3.03278   0.00019   0.00000  -0.00056  -0.00054   3.03224
   D37        0.84534   0.00044   0.00000   0.01488   0.01491   0.86025
   D38        2.89155   0.00064   0.00000   0.01721   0.01722   2.90877
   D39       -1.27247   0.00051   0.00000   0.01493   0.01497  -1.25750
   D40        3.11598  -0.00081   0.00000  -0.01517  -0.01520   3.10079
   D41       -1.12099  -0.00061   0.00000  -0.01283  -0.01288  -1.13387
   D42        0.99817  -0.00074   0.00000  -0.01511  -0.01513   0.98304
   D43        0.33938   0.00002   0.00000   0.01043   0.01043   0.34981
   D44        1.72516  -0.00062   0.00000   0.00841   0.00889   1.73406
   D45       -1.77952  -0.00010   0.00000  -0.00401  -0.00455  -1.78407
   D46       -0.39373  -0.00074   0.00000  -0.00603  -0.00609  -0.39982
   D47        1.20655   0.00131   0.00000   0.04378   0.04382   1.25037
   D48       -0.75717  -0.00160   0.00000  -0.01116  -0.01141  -0.76858
   D49       -0.89104   0.00174   0.00000   0.04937   0.04934  -0.84170
   D50       -2.85477  -0.00116   0.00000  -0.00557  -0.00588  -2.86065
   D51       -2.95615   0.00194   0.00000   0.04615   0.04619  -2.90996
   D52        1.36331  -0.00097   0.00000  -0.00880  -0.00904   1.35428
   D53        2.86790  -0.00089   0.00000  -0.00963  -0.00966   2.85824
   D54       -1.39335  -0.00087   0.00000  -0.00882  -0.00883  -1.40219
   D55        0.81254  -0.00092   0.00000  -0.01266  -0.01273   0.79981
   D56       -1.33041   0.00040   0.00000   0.00847   0.00841  -1.32200
   D57        0.69152   0.00041   0.00000   0.00927   0.00924   0.70076
   D58        2.89741   0.00037   0.00000   0.00543   0.00534   2.90275
   D59        0.76485   0.00081   0.00000   0.00495   0.00495   0.76980
   D60        2.78678   0.00083   0.00000   0.00576   0.00577   2.79256
   D61       -1.29051   0.00079   0.00000   0.00192   0.00187  -1.28864
   D62        0.23425   0.00029   0.00000   0.00218   0.00235   0.23659
   D63       -1.08244   0.00167   0.00000   0.02194   0.02193  -1.06052
   D64       -1.78081  -0.00135   0.00000  -0.04024  -0.04054  -1.82135
   D65       -3.09750   0.00004   0.00000  -0.02048  -0.02096  -3.11846
   D66        1.40433   0.00013   0.00000   0.00068   0.00060   1.40493
   D67       -2.85193  -0.00004   0.00000   0.00024   0.00023  -2.85170
   D68       -0.79946   0.00000   0.00000   0.00344   0.00353  -0.79594
   D69       -0.75058   0.00059   0.00000  -0.00044  -0.00047  -0.75105
   D70       -2.88878  -0.00014   0.00000  -0.00922  -0.00918  -2.89795
   D71        1.28255  -0.00058   0.00000  -0.00488  -0.00480   1.27775
   D72       -2.80078   0.00065   0.00000  -0.00176  -0.00181  -2.80259
   D73        1.34421  -0.00008   0.00000  -0.01054  -0.01052   1.33369
   D74       -0.76764  -0.00052   0.00000  -0.00620  -0.00615  -0.77379
   D75        1.43989   0.00051   0.00000  -0.00444  -0.00452   1.43537
   D76       -0.69831  -0.00022   0.00000  -0.01323  -0.01323  -0.71153
   D77       -2.81016  -0.00067   0.00000  -0.00889  -0.00885  -2.81902
   D78        3.12353   0.00105   0.00000   0.03794   0.03817  -3.12148
   D79        0.79834   0.00075   0.00000  -0.00123  -0.00141   0.79693
   D80        0.98250   0.00003   0.00000   0.03962   0.03997   1.02247
   D81       -1.34270  -0.00027   0.00000   0.00046   0.00039  -1.34231
   D82       -1.10866   0.00056   0.00000   0.03674   0.03701  -1.07165
   D83        2.84933   0.00027   0.00000  -0.00243  -0.00257   2.84676
   D84       -0.24463   0.00080   0.00000   0.00565   0.00555  -0.23908
   D85        1.06326  -0.00049   0.00000  -0.01303  -0.01281   1.05045
   D86       -2.49706  -0.00070   0.00000  -0.04825  -0.04829  -2.54534
   D87       -1.18916  -0.00199   0.00000  -0.06692  -0.06665  -1.25582
   D88       -3.05009   0.00020   0.00000   0.00322   0.00323  -3.04686
   D89        1.13689   0.00064   0.00000   0.00611   0.00615   1.14304
   D90       -0.95771  -0.00076   0.00000  -0.00503  -0.00507  -0.96278
         Item               Value     Threshold  Converged?
 Maximum Force            0.006835     0.000015     NO 
 RMS     Force            0.001635     0.000010     NO 
 Maximum Displacement     0.163686     0.000060     NO 
 RMS     Displacement     0.030109     0.000040     NO 
 Predicted change in Energy=-1.857797D-03
 GradGradGradGradGradGradGradGradGradGradGradGradGradGradGradGradGradGrad

                          Input orientation:                          
 ---------------------------------------------------------------------
 Center     Atomic      Atomic             Coordinates (Angstroms)
 Number     Number       Type             X           Y           Z
 ---------------------------------------------------------------------
      1          6           0      -29.326640   36.848199   -2.112618
      2          1           0      -28.714497   37.616547   -2.589050
      3          8           0      -30.529842   37.337420   -1.641272
      4          1           0      -30.383502   38.144356   -1.134419
      5          6           0      -27.328427   35.765455   -1.284193
      6          1           0      -26.978108   35.322657   -0.348862
      7          8           0      -28.622157   36.312024   -0.982470
      8          6           0      -29.652670   35.718995   -3.075018
      9          1           0      -30.106357   36.128999   -3.978763
     10          8           0      -30.559735   34.825515   -2.428787
     11          1           0      -31.423641   35.258162   -2.363338
     12          6           0      -28.391427   34.944610   -3.484549
     13          1           0      -28.723511   33.999237   -3.922119
     14          8           0      -27.695285   35.630645   -4.488605
     15          1           0      -27.161717   36.341034   -4.091431
     16          6           0      -27.496369   34.613046   -2.276782
     17          1           0      -26.516193   34.293699   -2.638384
     18          8           0      -28.100539   33.572308   -1.498949
     19          1           0      -28.236681   32.778825   -2.032448
     20          6           0      -26.285806   36.811489   -1.619116
     21          1           0      -26.316369   37.580676   -0.843901
     22          1           0      -25.308962   36.322207   -1.593359
     23          8           0      -26.526630   37.384428   -2.896151
     24          1           0      -25.808011   37.982709   -3.125424
     25         20           0      -29.931723   34.338072   -0.119403
 ---------------------------------------------------------------------
                    Distance matrix (angstroms):
                    1          2          3          4          5
     1  C    0.000000
     2  H    1.091817   0.000000
     3  O    1.381738   2.066803   0.000000
     4  H    1.937487   2.275987   0.964086   0.000000
     5  C    2.418983   2.655255   3.584360   3.874930   0.000000
     6  H    3.309640   3.646288   4.283037   4.491747   1.092537
     7  O    1.435623   2.071570   2.263784   2.546147   1.436493
     8  C    1.519082   2.171873   2.333315   3.190990   2.934504
     9  H    2.146556   2.466044   2.665237   3.496966   3.887128
    10  O    2.389924   3.349694   2.632631   3.566673   3.554565
    11  H    2.643576   3.598943   2.375620   3.304883   4.265288
    12  C    2.525959   2.836466   3.700815   4.441830   2.577852
    13  H    3.428504   3.855137   4.428156   5.263920   3.467627
    14  O    3.128749   2.931025   4.365215   4.979540   3.228159
    15  H    2.976543   2.509025   4.282561   4.730306   2.870482
    16  C    2.893571   3.256127   4.126506   4.702200   1.530191
    17  H    3.834125   3.984506   5.134964   5.660879   2.158616
    18  O    3.551250   4.233335   4.483061   5.123322   2.334988
    19  H    4.213578   4.893022   5.117851   5.848437   3.210104
    20  C    3.080838   2.736317   4.276557   4.336194   1.514403
    21  H    3.347819   2.966116   4.295152   4.116274   2.124416
    22  H    4.085099   3.776822   5.318886   5.411267   2.117498
    23  O    2.956607   2.221475   4.195550   4.307744   2.421231
    24  H    3.833228   2.978159   4.991472   4.992530   3.258529
    25  Ca   3.261866   4.281260   3.416126   3.965118   3.189248
                    6          7          8          9         10
     6  H    0.000000
     7  O    2.020694   0.000000
     8  C    3.839569   2.406740   0.000000
     9  H    4.859249   3.348749   1.091187   0.000000
    10  O    4.171485   2.838265   1.427827   2.075343   0.000000
    11  H    4.881090   3.296321   1.963466   2.259025   0.968401
    12  C    3.460191   2.860674   1.535618   2.141964   2.414617
    13  H    4.191185   3.741763   2.130372   2.539952   2.506889
    14  O    4.212679   3.690034   2.416069   2.514272   3.618861
    15  H    3.882991   3.435020   2.761317   2.954413   4.075256
    16  C    2.118730   2.414368   2.551458   3.465095   3.074485
    17  H    2.552260   3.354217   3.472694   4.249025   4.083747
    18  O    2.376188   2.836350   3.082429   4.087719   2.912519
    19  H    3.299931   3.706014   3.425869   4.302033   3.121314
    20  C    2.075920   2.472513   3.827396   4.542063   4.781854
    21  H    2.404498   2.635400   4.424323   5.128229   5.301785
    22  H    2.309529   3.369058   4.628928   5.361201   5.523463
    23  O    3.308083   3.033720   3.546517   3.944946   4.799209
    24  H    4.019241   3.911887   4.461876   4.758172   5.747352
    25  Ca   3.121842   2.521177   3.274214   4.258236   2.442387
                   11         12         13         14         15
    11  H    0.000000
    12  C    3.248038   0.000000
    13  H    3.362349   1.093379   0.000000
    14  O    4.307684   1.401209   2.009887   0.000000
    15  H    4.724713   1.957164   2.819908   0.973188   0.000000
    16  C    3.980846   1.539403   2.142375   2.442792   2.528019
    17  H    5.008881   2.157819   2.570396   2.569240   2.592224
    18  O    3.825216   2.431139   2.538132   3.652263   3.907453
    19  H    4.051335   2.612119   2.301579   3.802458   4.252562
    20  C    5.418860   3.376199   4.376641   3.408077   2.664749
    21  H    5.812657   4.269394   5.300609   4.357510   3.577397
    22  H    6.254148   3.869879   4.741145   3.815133   3.110212
    23  O    5.365223   3.126723   4.163943   2.641481   1.709006
    24  H    6.288023   4.004130   5.000291   3.309421   2.336832
    25  Ca   2.847390   3.750280   4.004401   5.075659   5.240399
                   16         17         18         19         20
    16  C    0.000000
    17  H    1.092466   0.000000
    18  O    1.432893   2.080594   0.000000
    19  H    1.993020   2.371093   0.965801   0.000000
    20  C    2.594444   2.726032   3.714833   4.498792   0.000000
    21  H    3.500339   3.750242   4.436142   5.306412   1.092493
    22  H    2.858854   2.581537   3.919664   4.617347   1.092833
    23  O    3.000762   3.101477   4.354495   4.988170   1.420237
    24  H    3.863337   3.787812   5.229985   5.845805   1.966980
    25  Ca   3.265095   4.244181   2.417183   2.994020   4.653991
                   21         22         23         24         25
    21  H    0.000000
    22  H    1.777723   0.000000
    23  O    2.072305   2.075643   0.000000
    24  H    2.371794   2.313771   0.962766   0.000000
    25  Ca   4.910209   5.242066   5.346519   6.270928   0.000000
 Symmetry turned off by external request.
 Stoichiometry    C6H12CaO6(2+)
 Framework group  C1[X(C6H12CaO6)]
 Deg. of freedom    69
 Full point group                 C1      NOp   1
 Rotational constants (GHZ):      0.9596797      0.6015813      0.5764217
 Standard basis: 6-311+G(2df,p) (5D, 7F)
 Integral buffers will be    131072 words long.
 Raffenetti 2 integral format.
 Two-electron integral symmetry is turned off.
   535 basis functions,   811 primitive gaussians,   601 cartesian basis functions
    57 alpha electrons       57 beta electrons
       nuclear repulsion energy      1166.0458338429 Hartrees.
 NAtoms=   25 NActive=   25 NUniq=   25 SFac= 1.00D+00 NAtFMM=   60 NAOKFM=F Big=F
 ------------------------------------------------------------------------------
 Polarizable Continuum Model (PCM)
 =================================
 Model                : C-PCM.
 Atomic radii         : UFF (Universal Force Field).
 Polarization charges : Total charges.
 Charge compensation  : None.
 Solution method      : Matrix inversion.
 Cavity type          : Scaled VdW (van der Waals Surface) (Alpha=1.100).
 Cavity algorithm     : GePol (No added spheres)
                        Default sphere list used, NSphG=   25.
                        Lebedev-Laikov grids with approx.  5.0 points / Ang**2.
                        Smoothing algorithm: Karplus/York (Gamma=1.0000).
                        Polarization charges: spherical gaussians, with
                                              point-specific exponents (IZeta= 3).
                        Self-potential: point-specific (ISelfS= 7).
                        Self-field    : sphere-specific E.n sum rule (ISelfD= 2).
 1st derivatives      : Analytical E(r).r(x)/FMM algorithm (CHGder, D1EAlg=3).
                        Cavity 1st derivative terms included.
 Solvent              : Water, Eps=  78.355300 Eps(inf)=   1.777849
 ------------------------------------------------------------------------------
 One-electron integrals computed using PRISM.
 NBasis=   535 RedAO= T  NBF=   535
 NBsUse=   535 1.00D-06 NBFU=   535
 Initial guess read from the read-write file.
 B after Tr=     0.000000    0.000000    0.000000
         Rot=    1.000000    0.000000    0.000000    0.000000 Ang=   0.00 deg.
 Harris functional with IExCor= 1009 diagonalized for initial guess.
 ExpMin= 7.10D-03 ExpMax= 2.03D+05 ExpMxC= 6.92D+03 IAcc=3 IRadAn=         5 AccDes= 0.00D+00
 HarFok:  IExCor= 1009 AccDes= 0.00D+00 IRadAn=         5 IDoV= 1
 ScaDFX=  1.000000  1.000000  1.000000  1.000000
 FoFCou: FMM=F IPFlag=           0 FMFlag=      100000 FMFlg1=           0
         NFxFlg=           0 DoJE=T BraDBF=F KetDBF=T FulRan=T
         Omega=  0.000000  0.000000  1.000000  0.000000  0.000000 ICntrl=     500 IOpCl=  0
         NMat0=    1 NMatS0=    1 NMatT0=    0 NMatD0=    1 NMtDS0=    0 NMtDT0=    0
         I1Cent=           4 NGrid=           0.
 Symmetry not used in FoFCou.
 Requested convergence on RMS density matrix=1.00D-08 within 128 cycles.
 Requested convergence on MAX density matrix=1.00D-06.
 Requested convergence on             energy=1.00D-06.
 No special actions if energy rises.
 Error on total polarization charges =  0.00827
 SCF Done:  E(RM062X) =  -1364.66129807     A.U. after   11 cycles
             Convg  =    0.2497D-08             -V/T =  2.0026
 QCSCF skips out because SCF is already converged.
 D1PCM: C-PCM CHGder 1st derivatives, ID1Alg=3 FixD1E=F DoIter=F DoCFld=F I1PDM=0.
 Calling FoFJK, ICntrl=      2127 FMM=F ISym2X=0 I1Cent= 0 IOpClX= 0 NMat=1 NMatS=1 NMatT=0.
 -------------------------------------------------------------------
 Center     Atomic                   Forces (Hartrees/Bohr)
 Number     Number              X              Y              Z
 -------------------------------------------------------------------
      1        6          -0.003282049    0.003817200   -0.002355463
      2        1          -0.000889597   -0.000397127    0.001472932
      3        8           0.001193581    0.000404234    0.000332328
      4        1          -0.000077435    0.000031465   -0.000315166
      5        6           0.002867930    0.000348031   -0.001318918
      6        1          -0.000434146    0.000236070    0.000605521
      7        8           0.000220369   -0.006282167    0.001205556
      8        6           0.001170106    0.000817120   -0.002259684
      9        1          -0.000338039   -0.000419922    0.000236231
     10        8           0.000896339   -0.000041181    0.003790139
     11        1           0.000843172   -0.000391843   -0.003283508
     12        6           0.000441600    0.000168783   -0.001262897
     13        1          -0.000051213   -0.000079911    0.000436752
     14        8          -0.001986472   -0.003102715   -0.001707014
     15        1          -0.000714230    0.000363130    0.000817131
     16        6           0.001623117    0.000826782   -0.001889747
     17        1          -0.000327889   -0.000918538    0.000165730
     18        8          -0.002546935    0.003474718   -0.000380646
     19        1           0.001165752    0.000265766    0.000269351
     20        6          -0.000667156   -0.000454435   -0.000075881
     21        1           0.000029991    0.000073620   -0.000278251
[...]
 93,-0.00032840,0.00024526,-0.00041547,0.00037117,-0.00039494,0.0001787
 8,0.09112599,-0.08937902,-0.03748478,-0.08798800,0.09543576,-0.0009580
 6,-0.00000647,-0.00175662,0.00007794,0.00000295,0.00015888,0.00033188,
 0.00001264,0.00041509,-0.00007082,0.00005462,0.00002715,0.01598635,-0.
 00617550,-0.00383758,-0.00000016,0.00072453,0.00026649,0.00204978,-0.0
 0399244,-0.00221094,-0.00152885,0.00137970,-0.00534425,-0.00130355,0.0
 0081014,0.00065535,0.00017407,-0.00040569,0.00055578,0.00010992,-0.000
 05856,0.00009449,-0.02343903,0.01144918,0.00764603,0.00062821,-0.00053
 178,0.00076921,0.00073341,-0.00179044,0.00245958,0.00008347,0.00041667
 ,0.00004047,0.06827801,-0.03158780,-0.07598615,-0.08122198,0.02958169,
 0.08488775,-0.00049570,0.00002432,-0.00054787,-0.00001810,0.00016653,0
 .00012088,0.00037536,-0.00003771,0.00007136,0.00004968,0.00003775,-0.0
 0002177,-0.00830112,-0.01382121,0.00560299,0.00032588,0.00018650,0.000
 98203,0.00310006,0.00129348,-0.00043999,-0.00098433,-0.00308448,0.0039
 3360,0.00072767,-0.00014443,-0.00032395,-0.00855041,0.00461046,-0.0030
 5426,0.00057091,0.00139624,-0.00111997,0.00764131,0.00325429,-0.004515
 51,0.00098746,0.00113700,0.00060619,0.00119357,0.00090507,-0.00161271,
 -0.00053170,0.00040405,-0.00078993,-0.09586962,-0.03162824,0.05255459,
 -0.01297040,-0.03156737,0.02196683,0.14522978,-0.00206037,0.00179740,-
 0.00095839,0.00006216,0.00007689,0.00020312,0.00126468,-0.00095625,-0.
 00047273,-0.00006164,0.00023226,0.00005276,-0.02868090,-0.04628976,0.0
 1754255,0.00065255,0.00097341,0.00267945,-0.00020683,-0.00289106,0.000
 72291,-0.00101997,0.00107708,-0.00133983,0.00019768,-0.00002559,0.0001
 7606,0.00541719,-0.00181289,0.00095770,-0.00018581,-0.00001387,0.00029
 014,-0.01475247,-0.01541170,0.00972420,0.00008683,0.00219474,-0.000750
 59,0.00236038,-0.00259028,0.00774663,0.00077021,0.00177092,-0.00071605
 ,-0.04812549,-0.13935267,0.06035263,-0.00449137,0.00208730,0.00029464,
 0.10212994,0.61022994,-0.00068844,-0.00057868,-0.00125554,0.00006231,-
 0.00010830,0.00010537,-0.00018338,0.00059112,0.00056945,-0.00006335,-0
 .00003647,0.00003640,-0.00870386,-0.01704641,0.00845030,-0.00076520,-0
 .00126466,0.00251601,-0.00183279,-0.00103927,0.00171126,0.00124112,-0.
 00093291,0.00003907,-0.00029630,0.00012828,-0.00009672,-0.00489725,0.0
 0173450,0.00039206,0.00010255,0.00045527,0.00012524,0.02246340,0.02642
 966,-0.01888993,0.00286098,0.00034853,0.00243598,-0.00417230,0.0089488
 5,-0.01181306,-0.00146463,-0.00271152,-0.00086979,0.04239785,0.0211493
 5,-0.12963651,0.01050075,0.01859539,-0.01020290,-0.07678346,0.14673883
 ,0.33028718,0.00030040,-0.00013217,0.00034655,-0.00005832,0.00001517,-
 0.00008582,-0.00001098,-0.00006116,-0.00006947,0.00001072,-0.00000981,
 0.00000366,-0.00373546,-0.00340470,0.00236405,0.00000457,-0.00006263,0
 .00049715,0.00048722,0.00135434,-0.00013032,0.00001677,0.00034163,-0.0
 0004196,-0.00002243,-0.00005579,0.00000206,0.00016102,-0.00021033,-0.0
 0014454,-0.00012459,-0.00020939,-0.00003866,0.00073513,0.00155119,0.00
 022319,0.00015462,0.00001202,-0.00067973,-0.00037857,-0.00036349,-0.00
 003309,0.00001865,-0.00002127,0.00004422,-0.00285614,-0.01774595,-0.01
 016764,0.00000909,-0.00009463,-0.00073534,-0.01486294,-0.02030652,0.01
 126226,0.01966657,0.00019598,-0.00057455,-0.00009293,-0.00004183,0.000
 04244,-0.00000146,-0.00028280,0.00035401,0.00025648,0.00000452,-0.0000
 5813,-0.00000480,-0.00252082,-0.00280843,0.00243690,-0.00005960,0.0001
 8391,0.00019924,-0.00038595,0.00119069,0.00035754,0.00035197,-0.000460
 77,-0.00002948,-0.00013852,0.00013704,-0.00000889,-0.00099506,0.000161
 97,-0.00006156,0.00020209,0.00025914,-0.00004342,0.00094567,-0.0009931
 4,0.00061995,0.00056044,-0.00027202,0.00099359,0.00030792,0.00186379,-
 0.00148640,-0.00028005,-0.00041195,-0.00025699,-0.00232060,-0.02358241
 ,-0.01226335,0.00037197,0.00204056,-0.00079378,-0.03675658,-0.39283821
 ,-0.19546980,0.03816148,0.41707924,0.00017956,-0.00002638,0.00015543,0
 .00003549,-0.00002533,0.00001494,0.00004027,-0.00013774,-0.00014174,0.
 00001380,0.00000521,-0.00001098,0.00143450,0.00238528,-0.00245201,0.00
 026818,-0.00018944,0.00039930,-0.00020941,0.00004017,0.00020705,-0.000
 39365,-0.00023546,-0.00007442,0.00000293,0.00000436,0.00000729,0.00006
 590,-0.00000704,-0.00007507,-0.00008313,-0.00006183,-0.00004874,0.0019
 3308,0.00305153,0.00128736,-0.00080784,-0.00031053,-0.00158423,-0.0006
 1529,-0.00085787,-0.00045169,0.00005852,-0.00006334,0.00029599,0.00106
 400,0.02386911,0.00969993,0.00062092,0.00015455,0.00029944,0.00076042,
 -0.23534761,-0.16488960,-0.00372713,0.20872328,0.15698799,-0.00070189,
 -0.00411446,0.00423359,-0.00025362,0.00122324,-0.00114173,0.00041045,0
 .00093043,-0.00086608,-0.00002633,0.00001810,0.00007577,-0.13147895,-0
 .05485725,0.00696485,0.00693440,0.00649521,-0.00206324,-0.03974384,-0.
 01803756,0.01190501,-0.00084858,-0.00003724,-0.00045419,0.00009883,-0.
 00013046,-0.00010787,0.00040608,0.00030189,-0.00032618,-0.00004075,-0.
 00000666,-0.00004630,-0.00060477,0.00085526,-0.00048050,0.00031447,-0.
 00007661,0.00040943,0.00004217,-0.00066714,0.00037812,-0.00015384,0.00
 137025,-0.00106136,-0.00105765,-0.00828377,-0.00335133,0.00007997,0.00
 055745,0.00018038,0.00199547,0.00400463,0.00037715,0.00060305,0.000345
 13,0.00007747,0.56964252,-0.00291136,0.00438822,-0.00524788,0.00104324
 ,-0.00048347,0.00040617,0.00093392,-0.00138107,0.00070790,-0.00002000,
 0.00022889,-0.00001675,-0.07052308,-0.14846415,0.00747445,-0.00660208,
 -0.00989748,0.00330411,0.02047300,0.01259977,-0.00404238,-0.00002092,-
 0.00044595,0.00063392,0.00017728,0.00017294,0.00017710,0.00005652,0.00
 001353,0.00025955,-0.00010778,-0.00002714,0.00001853,0.00075586,0.0014
 9539,-0.00192681,0.00016571,-0.00032880,0.00052974,-0.00278390,-0.0039
 2169,-0.00120670,0.00361730,0.00655519,0.00244535,-0.01367558,-0.01500
 888,0.00806750,-0.00010635,0.00022257,0.00047354,-0.00099716,-0.003526
 19,-0.00242549,-0.00085829,-0.00024503,0.00041231,-0.03455643,0.561158
 65,-0.00041711,-0.00291831,0.00327798,-0.00159377,0.00069418,0.0002750
 0,0.00053000,0.00072621,-0.00107077,-0.00000998,-0.00000129,0.00019816
 ,0.01838936,0.00990492,-0.08557199,0.01775036,0.02196005,-0.00813420,0
 .00389917,0.00382330,-0.00099777,-0.00037945,-0.00022807,-0.00076029,-
 0.00018800,0.00008582,-0.00003837,0.00034110,0.00042821,-0.00018325,-0
 .00000234,0.00004994,-0.00006788,-0.00168588,-0.00367512,0.00216104,-0
 .00026683,0.00033314,-0.00059992,0.00340953,0.00409943,0.00155926,-0.0
 0385322,-0.00361884,-0.00755733,-0.01598513,-0.00957248,0.01015302,0.0
 0044908,0.00019535,0.00057062,-0.00210266,-0.00663516,-0.00229086,-0.0
 0079936,-0.00076464,0.00109340,-0.00651660,0.04925365,0.52998163,-0.00
 040546,0.00010033,-0.00027798,-0.00002005,0.00002476,-0.00008092,0.000
 08610,-0.00001153,-0.00000366,-0.00001960,0.00002394,0.00001596,-0.002
 09742,-0.02157567,-0.01709600,0.00045630,0.00079819,0.00008880,0.00301
 588,0.00131433,-0.00066718,0.00014696,-0.00008699,-0.00002483,-0.00001
 910,0.00004115,0.00002346,-0.00002456,0.00005159,0.00003938,-0.0000024
 9,0.00000504,0.00000327,0.00026243,-0.00013516,0.00009143,-0.00005966,
 0.00000452,-0.00006489,-0.00011947,-0.00000957,-0.00011608,0.00018783,
 0.00023404,0.00008581,-0.00230944,-0.00076082,0.00284651,0.00009847,-0
 .00014307,-0.00008603,-0.00052745,-0.00188994,-0.00053060,-0.00022508,
 -0.00016909,0.00021101,-0.05323694,0.01224732,0.01005311,0.05047769,-0
 .00021259,-0.00002238,-0.00014066,-0.00018354,-0.00005866,-0.00008320,
 -0.00006778,0.00007027,-0.00001888,-0.00001604,-0.00000934,0.00000519,
 0.00130040,-0.01972521,-0.01697099,0.00029931,0.00016837,-0.00008680,0
 .00121911,0.00241553,0.00044255,0.00013749,-0.00003274,-0.00008902,-0.
 00005844,0.00004883,0.00002190,-0.00008006,0.00000703,0.00003577,0.000
 01840,0.00001145,0.00000147,0.00007902,-0.00065862,0.00053096,-0.00012
 190,0.00005354,-0.00020708,0.00046151,0.00081945,-0.00008961,-0.000559
 82,-0.00094780,-0.00035512,-0.00231043,0.00052448,0.00268633,0.0000806
 7,0.00027029,0.00026152,-0.00087042,-0.00192597,-0.00042201,-0.0002869
 8,-0.00005877,0.00021489,0.00756206,-0.18728729,-0.13492641,-0.0073512
 4,0.19881702,-0.00015571,0.00017670,-0.00029427,0.00008649,-0.00013276
 ,-0.00014046,-0.00005696,-0.00004942,0.00009097,-0.00001390,-0.0000015
 5,-0.00001571,-0.00017291,0.00382634,0.00569466,-0.00080185,-0.0002747
 1,0.00064063,-0.00034553,0.00030725,0.00015521,0.00003991,0.00002268,0
 .00006340,0.00002689,-0.00001668,0.00000437,-0.00005912,-0.00002051,0.
 00004981,-0.00000316,-0.00000623,0.00001172,0.00028644,0.00063853,-0.0
 0046815,0.00004397,-0.00007702,0.00017795,-0.00098305,-0.00132509,-0.0
 0024875,0.00146358,0.00200233,0.00145196,0.00188108,0.00042626,0.00032
 763,-0.00000219,-0.00004792,-0.00013673,0.00019323,0.00042084,0.000145
 43,0.00003404,0.00009532,-0.00006481,0.00910080,-0.13023414,-0.1724069
 0,-0.00736727,0.13696925,0.20289321,0.00134629,-0.00081966,0.00115403,
 0.00016108,-0.00003764,-0.00003891,-0.00047482,0.00029031,-0.00001364,
 0.00003835,-0.00009234,-0.00003657,-0.01987792,0.01109859,0.00112371,0
 .00029776,0.00009125,0.00029107,-0.00463415,-0.00344392,0.00121460,0.0
 0003958,0.00015971,0.00004459,-0.00002172,-0.00007893,-0.00005898,-0.0
 0014956,-0.00012970,-0.00005406,0.00005177,0.00000759,0.00000347,0.000
 03492,0.00014161,-0.00004477,0.00000899,-0.00002437,-0.00000087,-0.000
 11521,-0.00025505,-0.00011748,0.00011166,0.00039798,0.00032167,0.00021
 306,0.00049999,0.00011631,-0.00016603,-0.00051135,-0.00036807,0.000351
 40,-0.00001697,-0.00005419,0.00003677,-0.00001066,-0.00000273,-0.26470
 351,0.10058785,0.00077536,0.00081957,-0.00022846,0.00067127,0.28396355
 ,0.00056423,-0.00107585,0.00124184,-0.00024717,0.00002393,-0.00007819,
 -0.00034828,0.00039908,-0.00021692,0.00001446,-0.00006400,-0.00000381,
 -0.01905405,0.01059123,-0.00009773,-0.00002915,0.00109487,0.00016381,-
 0.00656232,-0.00226503,0.00114799,-0.00007376,0.00009754,-0.00004339,-
 0.00000771,-0.00005367,-0.00004123,-0.00000623,-0.00003101,-0.00007512
 ,0.00002173,0.00000761,-0.00000623,-0.00019112,-0.00004777,0.00024542,
 0.00003552,0.00001310,-0.00001656,0.00033629,0.00036503,0.00017094,-0.
 00040265,-0.00061807,-0.00055220,0.00015925,0.00008450,-0.00050898,-0.
 00026852,-0.00030150,-0.00021178,0.00032371,0.00034004,0.00003946,0.00
 006555,0.00001506,-0.00001020,0.10087624,-0.10197789,-0.00496813,0.021
 93344,-0.00797675,-0.00131790,-0.11118335,0.10815412,-0.00050672,0.000
 87385,-0.00119192,0.00018830,-0.00014103,-0.00008064,0.00028096,-0.000
 34142,0.00015182,-0.00001619,0.00004773,0.00000432,0.00219728,-0.00384
 311,-0.00046237,0.00121785,-0.00033648,0.00000253,0.00324446,0.0010297
 9,0.00126069,0.00007611,-0.00008573,0.00009510,0.00003164,0.00004059,0
 .00003949,0.00001707,0.00001484,0.00006909,-0.00002343,-0.00000866,0.0
 0001069,0.00013420,0.00005966,-0.00025085,-0.00004721,-0.00001485,0.00
 002354,-0.00025065,-0.00053979,-0.00014211,0.00032306,0.00095365,0.000
 72466,-0.00033618,0.00023887,-0.00015750,-0.00006868,-0.00004276,0.000
 09498,0.00009118,0.00017341,0.00004782,-0.00001129,-0.00000445,-0.0000
 0448,0.00749726,-0.00425209,-0.04864445,0.01930418,-0.00800019,0.00173
 841,0.00164774,-0.00750706,0.06126939,-0.00170280,0.00460810,-0.003767
 03,-0.00652388,-0.00251184,0.00234396,-0.00318079,-0.00071944,0.002250
 24,0.00017385,-0.00027962,-0.00046089,0.01011206,-0.01056392,0.0288785
 8,-0.00353514,-0.00479790,0.00172021,0.00302767,0.00110979,-0.00064537
 ,0.00080550,0.00057805,0.00073776,-0.00004493,-0.00009150,0.00002581,-
 0.00113211,-0.00101306,0.00030688,0.00019821,0.00003171,0.00010386,0.0
 0166445,0.00173660,-0.00210584,-0.00010794,-0.00037810,0.00030581,-0.0
 0449183,-0.00938084,-0.00827256,-0.00197306,-0.00050885,0.00309915,0.0
 0085164,0.00237472,-0.00024783,-0.00004731,-0.00014976,-0.00003287,-0.
 00023117,-0.00070352,0.00037855,-0.00011164,0.00021784,-0.00017893,-0.
 09326288,-0.01444008,-0.01756037,0.00344028,0.00089866,-0.00283293,0.0
 0170088,0.01301303,-0.03386172,0.40762961,0.00040394,0.00065091,0.0011
 9592,-0.00151347,-0.00021098,0.00004364,-0.00119645,0.00039888,0.00036
 392,0.00003389,-0.00020423,-0.00004325,0.01099042,-0.01312296,0.033182
 09,-0.00535113,-0.00354949,0.00130714,-0.00271606,0.00188702,-0.002316
 98,0.00077963,0.00001461,-0.00026790,-0.00005338,-0.00009319,-0.000045
 25,-0.00075776,-0.00010436,0.00032519,0.00010527,0.00001974,0.00008027
 ,0.00222671,0.00214797,-0.00296087,-0.00029255,-0.00032916,0.00026896,
 -0.00916677,-0.00834455,-0.01009982,0.00011201,-0.00618660,0.00264845,
 0.00181934,0.00351530,0.00007759,0.00016174,0.00005933,-0.00015579,-0.
 00054805,-0.00114813,0.00043867,-0.00010492,0.00026133,-0.00020531,0.0
 0791372,-0.10061573,0.07238319,-0.00448244,0.01449226,-0.01051100,0.00
 362914,-0.00780522,0.02337938,0.25542920,0.32522011,-0.00050427,-0.000
 23034,-0.00041787,0.00191315,0.00059337,-0.00040667,0.00120967,-0.0000
 9763,-0.00004964,-0.00010940,0.00017598,0.00008591,-0.00509401,0.00977
 266,-0.01395332,0.00216799,0.00127922,0.00088252,0.00355989,-0.0016819
 3,0.00162343,0.00017897,-0.00048775,0.00003996,0.00018644,-0.00000584,
 0.00008071,-0.00025994,0.00029177,0.00037454,-0.00008821,-0.00005515,0
 .00006353,0.00196050,0.00240206,-0.00452370,-0.00025616,-0.00072551,0.
 00125313,-0.00986140,-0.01196985,-0.00356841,0.00561764,0.00472185,-0.
 00096376,0.00055393,-0.00219406,-0.00020645,-0.00009179,0.00006460,0.0
 0009839,0.00052547,0.00119102,0.00077600,0.00012607,0.00008915,-0.0000
 6620,-0.05442057,0.04849222,-0.20873268,-0.00707105,0.02078897,-0.0401
 2421,-0.00584137,0.01268710,-0.01622362,-0.01217972,-0.16443418,0.3382
 7206,-0.00017069,0.00106691,-0.00087628,-0.00075692,-0.00071490,0.0002
 8971,-0.00028956,-0.00022653,0.00035847,0.00001052,-0.00001567,-0.0000
 6800,-0.00018300,0.00155135,-0.00176478,0.00041749,0.00035127,-0.00035
 518,0.00073077,-0.00017522,0.00012505,0.00008546,0.00008766,0.00012995
 ,0.00002477,-0.00000005,0.00000084,-0.00002563,-0.00009204,0.00002056,
 0.00000509,0.00000139,0.00000787,-0.00005319,0.00022442,-0.00003832,0.
 00002129,-0.00001962,0.00004048,0.00063863,0.00012233,0.00018278,-0.00
 135154,-0.00049645,-0.00015555,-0.00002049,-0.00028858,-0.00024731,0.0
 0000282,-0.00005136,0.00000272,0.00013749,0.00028769,0.00005618,0.0000
 3480,0.00000305,-0.00000695,0.00661531,0.00844095,-0.00460585,-0.00007
 351,-0.00000058,-0.00094621,0.00073058,0.00095459,-0.00095630,-0.31398
 834,-0.25853170,0.07869812,0.30762576,0.00013808,-0.00038386,0.0003165
 9,-0.00025004,0.00039709,-0.00011597,0.00056449,0.00008700,-0.00033507
 ,-0.00003665,0.00005927,0.00007667,0.00177563,-0.00075096,0.00319277,-
 0.00076984,-0.00032528,0.00018441,0.00013040,0.00018743,-0.00007527,-0
 .00012618,-0.00014507,-0.00012476,0.00001588,0.00001175,0.00000801,0.0
 0015938,0.00018453,-0.00002434,-0.00003692,-0.00000612,-0.00001092,0.0
 0010946,0.00004810,0.00006350,0.00000231,0.00003996,-0.00000079,0.0001
 0124,0.00023948,-0.00052716,-0.00158236,-0.00160960,0.00006511,0.00016
 703,0.00014001,-0.00010713,-0.00002095,-0.00002218,-0.00004788,0.00010
 326,0.00021605,-0.00002740,0.00001721,-0.00000692,-0.00001604,-0.01241
 246,-0.01180980,0.00367481,0.00001015,0.00108856,-0.00086641,-0.000570
 35,0.00068733,-0.00148223,-0.23499557,-0.20748896,0.07991252,0.2475724
 6,0.21925821,0.00004790,0.00013378,-0.00025780,0.00048026,-0.00015715,
 -0.00003126,-0.00028033,-0.00001464,0.00024379,0.00000719,-0.00002887,
 -0.00003511,-0.00291240,0.00133378,-0.00571524,0.00101284,0.00116637,-
 0.00003391,0.00019253,-0.00036674,0.00034732,0.00030215,0.00011761,0.0
 0006342,0.00000997,-0.00001182,-0.00000564,-0.00022880,-0.00009911,0.0
 0009508,0.00002490,-0.00000576,0.00002899,0.00075056,0.00090899,-0.000
 57640,-0.00004946,-0.00010434,0.00007605,-0.00169104,-0.00280823,-0.00
 241539,0.00009330,0.00165107,0.00439441,-0.00018558,0.00011545,-0.0002
 3059,-0.00000133,0.00008128,0.00002499,0.00000627,-0.00009355,0.000253
 36,0.00001710,0.00005049,0.00001743,0.02943488,0.02624735,-0.01180771,
 0.00071944,-0.00035661,0.00040245,-0.00048608,0.00004921,0.00148930,0.
 04270840,0.05602422,-0.05466770,-0.06994649,-0.08385820,0.06844204,0.0
 0698754,-0.00421056,0.00400228,-0.00078294,0.00030507,-0.00111242,-0.0
 0068616,0.00096545,0.00022115,0.00000313,-0.00036236,0.00018477,-0.003
 48189,-0.00052681,0.00108085,-0.00483132,-0.00161254,-0.00205860,-0.00
 406722,0.00258933,0.00118324,0.00334678,0.00178104,-0.00012782,-0.0008
 3653,-0.00064391,0.00007380,-0.00044125,0.00066067,0.00231525,-0.00117
 820,0.00070019,-0.00447577,0.00090800,-0.00062930,0.00172209,0.0000246
 2,-0.00004070,-0.00006052,-0.00034376,0.00109392,-0.00164563,-0.000106
 07,-0.00030505,0.00036304,-0.00533923,-0.00482033,0.00520456,0.0006299
 9,0.00043998,-0.00085819,-0.01934309,0.00526787,0.00873267,0.00014678,
 0.00229352,-0.00074100,-0.00102918,-0.00089594,0.00036948,0.00014872,0
 .00029163,-0.00008693,0.00023670,0.00007629,-0.00017293,0.00072969,0.0
 0110966,-0.00091996,-0.00016790,-0.00006567,-0.00002619,0.02947278,0.0
 0082804,-0.00627741,0.00843072,-0.00029937,0.00044152,-0.00066136,0.00
 000846,0.00572908,-0.00401350,0.00051529,-0.00089869,-0.00059618,-0.00
 712319,0.00324016,0.00121433,-0.00019861,-0.00047812,-0.00050319,0.001
 27017,-0.00752249,0.00468329,-0.00093569,-0.00069180,0.00377145,-0.000
 28412,-0.00040206,-0.00033351,0.00083692,-0.00311763,0.00367825,0.0014
 3634,0.00039614,0.00201251,-0.00147478,-0.00002204,0.00069766,0.000065
 20,-0.00018837,-0.00026465,0.00073202,-0.00029429,-0.00012217,-0.00014
 158,0.00012914,0.00027582,0.00122229,0.00434125,-0.00053068,-0.0004252
 5,-0.00119032,0.00029608,0.00348305,-0.01221344,-0.00353496,0.00240944
 ,-0.00127885,-0.00136657,0.00072643,-0.00141460,-0.00030374,-0.0001732
 6,-0.00008353,-0.00000414,0.00049873,0.00034332,-0.00021191,0.00053629
 ,0.00053612,-0.00058028,-0.00005138,-0.00009603,0.00002542,-0.00346144
 ,0.02101297,-0.00003371,0.00610041,-0.00269802,-0.00008346,-0.00059136
 ,-0.00056185,0.00015968,-0.00371237,0.00135586,-0.00037654,0.00036442,
 0.00055971,0.00474255,-0.00028768,0.00111228,-0.00270753,0.00006685,0.
 00106565,0.00005747,0.00265040,-0.00753581,0.00614764,0.00656664,-0.00
 803465,-0.00041118,-0.00107942,0.00081490,-0.00032830,0.00631067,-0.02
 139190,-0.00354930,-0.00091193,-0.00244183,0.00178965,-0.00048893,-0.0
 0271017,-0.00012279,0.00001790,-0.00018021,-0.00197424,-0.00119646,0.0
 0228196,0.00056336,0.00060199,0.00001121,0.00525808,0.00385199,-0.0035
 4972,-0.00080582,-0.00030463,0.00041050,0.00389707,-0.00295297,-0.0079
 4602,0.00174399,-0.00253997,-0.00060160,0.00020125,0.00044888,-0.00040
 576,-0.00009587,-0.00021220,0.00005219,-0.00024612,-0.00009037,0.00013
 611,-0.00071315,-0.00067829,0.00035404,0.00005449,0.00012516,-0.000101
 91,-0.01316722,-0.01205871,0.05000504\\-0.00000551,-0.00000798,0.00002
 445,-0.00001602,-0.00000098,0.00001985,0.00000247,-0.00001880,0.000048
 24,0.00000480,-0.00002132,0.00005247,0.00001477,-0.00000007,-0.0000161
 7,0.00003545,-0.00000503,-0.00002565,0.00002129,-0.00001109,0.00001004
 ,-0.00001215,-0.00000320,0.00002351,-0.00003085,0.00000010,0.00003426,
 0.00000379,-0.00001384,0.00003197,0.00000016,-0.00001854,0.00004930,-0
 .00001583,0.00000677,-0.00000268,-0.00001676,0.00000849,-0.00000443,-0
 .00003658,0.00001893,-0.00001136,-0.00003488,0.00001954,-0.00001419,0.
 00000723,0.00000505,-0.00002206,0.00000380,0.00001346,-0.00003973,0.00
 002787,-0.00000500,-0.00001666,0.00002374,-0.00000183,-0.00002161,0.00
 000488,0.00000781,-0.00002624,0.00001310,0.00000236,-0.00002078,0.0000
 0804,0.00001407,-0.00004676,-0.00002079,0.00001586,-0.00001908,-0.0000
 2808,0.00002140,-0.00002694,0.00004607,-0.00002617,0.00002025\\\@


 ABSOLUTISM, OBSOLETISM -- IF IT WORKS, IT'S OUT OF DATE

                          -- STAFFORD BEER
 Job cpu time:  0 days 20 hours 58 minutes 11.1 seconds.
 File lengths (MBytes):  RWF=    635 Int=      0 D2E=      0 Chk=     26 Scr=      1
 Normal termination of Gaussian 09 at Thu Jul 11 16:20:39 2013.
