 Entering Gaussian System, Link 0=/opt/gaussian/g09/g09
 Initial command:
 /opt/gaussian/g09/l1.exe /scratch/mayes/306764.gordon-fe2.local/Gau-658.inp -scrdir=/scratch/mayes/306764.gordon-fe2.local/
 Entering Link 1 = /opt/gaussian/g09/l1.exe PID=       659.
  
 Copyright (c) 1988,1990,1992,1993,1995,1998,2003,2009,2011,
            Gaussian, Inc.  All Rights Reserved.
  
 This is part of the Gaussian(R) 09 program.  It is based on
 the Gaussian(R) 03 system (copyright 2003, Gaussian, Inc.),
 the Gaussian(R) 98 system (copyright 1998, Gaussian, Inc.),
 the Gaussian(R) 94 system (copyright 1995, Gaussian, Inc.),
 the Gaussian 92(TM) system (copyright 1992, Gaussian, Inc.),
 the Gaussian 90(TM) system (copyright 1990, Gaussian, Inc.),
 the Gaussian 88(TM) system (copyright 1988, Gaussian, Inc.),
 the Gaussian 86(TM) system (copyright 1986, Carnegie Mellon
 University), and the Gaussian 82(TM) system (copyright 1983,
 Carnegie Mellon University). Gaussian is a federally registered
 trademark of Gaussian, Inc.
  
 This software contains proprietary and confidential information,
 including trade secrets, belonging to Gaussian, Inc.
  
 This software is provided under written license and may be
 used, copied, transmitted, or stored only in accord with that
 written license.
  
 The following legend is applicable only to US Government
 contracts under FAR:
  
                    RESTRICTED RIGHTS LEGEND
  
 Use, reproduction and disclosure by the US Government is
 subject to restrictions as set forth in subparagraphs (a)
 and (c) of the Commercial Computer Software - Restricted
 Rights clause in FAR 52.227-19.
  
 Gaussian, Inc.
 340 Quinnipiac St., Bldg. 40, Wallingford CT 06492
  
  
 ---------------------------------------------------------------
 Warning -- This program may not be used in any manner that
 competes with the business of Gaussian, Inc. or will provide
 assistance to any competitor of Gaussian, Inc.  The licensee
 of this program is prohibited from giving any competitor of
 Gaussian, Inc. access to this program.  By using this program,
 the user acknowledges that Gaussian, Inc. is engaged in the
 business of creating and licensing software in the field of
 computational chemistry and represents and warrants to the
 licensee that it is not a competitor of Gaussian, Inc. and that
 it will not use this program in any manner prohibited above.
 ---------------------------------------------------------------
  

 Cite this work as:
 Gaussian 09, Revision C.01,
 M. J. Frisch, G. W. Trucks, H. B. Schlegel, G. E. Scuseria, 
 M. A. Robb, J. R. Cheeseman, G. Scalmani, V. Barone, B. Mennucci, 
 G. A. Petersson, H. Nakatsuji, M. Caricato, X. Li, H. P. Hratchian, 
 A. F. Izmaylov, J. Bloino, G. Zheng, J. L. Sonnenberg, M. Hada, 
 M. Ehara, K. Toyota, R. Fukuda, J. Hasegawa, M. Ishida, T. Nakajima, 
 Y. Honda, O. Kitao, H. Nakai, T. Vreven, J. A. Montgomery, Jr., 
 J. E. Peralta, F. Ogliaro, M. Bearpark, J. J. Heyd, E. Brothers, 
 K. N. Kudin, V. N. Staroverov, T. Keith, R. Kobayashi, J. Normand, 
 K. Raghavachari, A. Rendell, J. C. Burant, S. S. Iyengar, J. Tomasi, 
 M. Cossi, N. Rega, J. M. Millam, M. Klene, J. E. Knox, J. B. Cross, 
 V. Bakken, C. Adamo, J. Jaramillo, R. Gomperts, R. E. Stratmann, 
 O. Yazyev, A. J. Austin, R. Cammi, C. Pomelli, J. W. Ochterski, 
 R. L. Martin, K. Morokuma, V. G. Zakrzewski, G. A. Voth, 
 P. Salvador, J. J. Dannenberg, S. Dapprich, A. D. Daniels, 
 O. Farkas, J. B. Foresman, J. V. Ortiz, J. Cioslowski, 
 and D. J. Fox, Gaussian, Inc., Wallingford CT, 2010.
 
 ******************************************
 Gaussian 09:  EM64L-G09RevC.01 23-Sep-2011
                15-Sep-2012 
 ******************************************
 %chk=/home/mayes/gaussian/bmannose/bman_oe_256con2relaxb3lrel.chk
 %mem=30GB
 %nproc=16
 Will use up to   16 processors via shared memory.
 ----------------------------------------------------------------------
 # opt b3lyp/6-311+G(2df,p) nosymm scf=(xqc) guess=read geom=(allcheck,
 newredundant)
 ----------------------------------------------------------------------
 1/14=-1,18=20,19=15,26=3,29=4007,38=1/1,3;
 2/9=110,12=2,15=1,40=1/2;
 3/5=4,6=6,7=114,11=2,14=-4,16=1,25=1,30=1,71=1,74=-5,116=-2/1,2,3;
 4/5=1/1;
 5/5=2,8=3,13=1,38=6/2,8;
 6/7=2,8=2,9=2,10=2,28=1/1;
 7/30=1/1,2,3,16;
 1/14=-1,18=20,19=15/3(2);
 2/9=110,15=1/2;
 99//99;
 2/9=110,15=1/2;
 3/5=4,6=6,7=114,11=2,14=-2,16=1,25=1,30=1,71=1,74=-5/1,2,3;
 4/5=5,16=3/1;
 5/5=2,8=3,13=1,38=5/2,8;
 7/30=1/1,2,3,16;
 1/14=-1,18=20,19=15/3(-5);
 2/9=110,15=1/2;
 6/7=2,8=2,9=2,10=2,19=2,28=1/1;
 99/9=1/99;
 Structure from the checkpoint file:  /home/mayes/gaussian/bmannose/bman_oe_256con2relaxb3lrel.chk
 -----
 again
 -----
 Charge =  0 Multiplicity = 1
 Redundant internal coordinates found in file.
 C,0,7.1637577866,6.9584167013,2.4781296924
 H,0,6.4684014697,6.1066178193,2.5304974119
 O,0,7.5880927822,7.343931808,3.7507872543
 H,0,8.2426065579,6.7043309799,4.0579855796
 C,0,7.9564433305,5.9782681155,0.4979784066
 H,0,7.6796443311,4.9237245826,0.6684414191
 O,0,8.3017727976,6.5780268234,1.7409917931
 C,0,6.4572441999,8.1632492091,1.8322311132
 H,0,5.390873565,8.115464619,2.0816144665
 O,0,7.006148597,9.3883795975,2.2734942071
 H,0,7.3978007455,9.2380062503,3.1462465443
 C,0,6.6289031053,8.1178455341,0.2905892668
 H,0,5.7422790401,8.5638422822,-0.1784677875
 O,0,7.7933848012,8.7954089082,-0.1174920259
 H,0,7.9821552613,9.4570464898,0.5657543985
 C,0,6.7572787764,6.6736185166,-0.181964966
 H,0,6.9199578266,6.6619453844,-1.2662060436
 O,0,5.5238637073,6.0476649546,0.1496041918
 H,0,5.4727016441,5.1954992908,-0.2968988922
 C,0,9.2107806747,6.0094165165,-0.358132635
 H,0,9.4109272707,7.0432708414,-0.6582833321
 H,0,10.0513174672,5.6316867481,0.2375650783
 O,0,8.9505717191,5.1699893559,-1.4742889455
 H,0,9.610156543,5.3291216716,-2.1560741958
 Recover connectivity data from disk.

 GradGradGradGradGradGradGradGradGradGradGradGradGradGradGradGradGradGrad
 Berny optimization.
 Initialization pass.
                           ----------------------------
                           !    Initial Parameters    !
                           ! (Angstroms and Degrees)  !
 --------------------------                            --------------------------
 ! Name  Definition              Value          Derivative Info.                !
 --------------------------------------------------------------------------------
 ! R1    R(1,2)                  1.1008         estimate D2E/DX2                !
 ! R2    R(1,3)                  1.3958         estimate D2E/DX2                !
 ! R3    R(1,7)                  1.4082         estimate D2E/DX2                !
 ! R4    R(1,8)                  1.5388         estimate D2E/DX2                !
 ! R5    R(3,4)                  0.9653         estimate D2E/DX2                !
 ! R6    R(5,6)                  1.1035         estimate D2E/DX2                !
 ! R7    R(5,7)                  1.4227         estimate D2E/DX2                !
 ! R8    R(5,16)                 1.544          estimate D2E/DX2                !
 ! R9    R(5,20)                 1.519          estimate D2E/DX2                !
 ! R10   R(8,9)                  1.0962         estimate D2E/DX2                !
 ! R11   R(8,10)                 1.4131         estimate D2E/DX2                !
 ! R12   R(8,12)                 1.5518         estimate D2E/DX2                !
 ! R13   R(10,11)                0.9683         estimate D2E/DX2                !
 ! R14   R(12,13)                1.0977         estimate D2E/DX2                !
 ! R15   R(12,14)                1.4077         estimate D2E/DX2                !
 ! R16   R(12,16)                1.525          estimate D2E/DX2                !
 ! R17   R(14,15)                0.9697         estimate D2E/DX2                !
 ! R18   R(16,17)                1.0964         estimate D2E/DX2                !
 ! R19   R(16,18)                1.4223         estimate D2E/DX2                !
 ! R20   R(18,19)                0.9634         estimate D2E/DX2                !
 ! R21   R(20,21)                1.095          estimate D2E/DX2                !
 ! R22   R(20,22)                1.0973         estimate D2E/DX2                !
 ! R23   R(20,23)                1.4206         estimate D2E/DX2                !
 ! R24   R(23,24)                0.9619         estimate D2E/DX2                !
 ! A1    A(2,1,3)              111.2455         estimate D2E/DX2                !
 ! A2    A(2,1,7)              109.0471         estimate D2E/DX2                !
 ! A3    A(2,1,8)              109.6206         estimate D2E/DX2                !
 ! A4    A(3,1,7)              107.8299         estimate D2E/DX2                !
 ! A5    A(3,1,8)              107.82           estimate D2E/DX2                !
 ! A6    A(7,1,8)              111.2726         estimate D2E/DX2                !
 ! A7    A(1,3,4)              108.2567         estimate D2E/DX2                !
 ! A8    A(6,5,7)              109.1948         estimate D2E/DX2                !
 ! A9    A(6,5,16)             107.6735         estimate D2E/DX2                !
 ! A10   A(6,5,20)             108.2881         estimate D2E/DX2                !
 ! A11   A(7,5,16)             112.5465         estimate D2E/DX2                !
 ! A12   A(7,5,20)             106.46           estimate D2E/DX2                !
 ! A13   A(16,5,20)            112.577          estimate D2E/DX2                !
 ! A14   A(1,7,5)              112.0279         estimate D2E/DX2                !
 ! A15   A(1,8,9)              108.4827         estimate D2E/DX2                !
 ! A16   A(1,8,10)             111.6779         estimate D2E/DX2                !
 ! A17   A(1,8,12)             110.0771         estimate D2E/DX2                !
 ! A18   A(9,8,10)             110.1585         estimate D2E/DX2                !
 ! A19   A(9,8,12)             109.4109         estimate D2E/DX2                !
 ! A20   A(10,8,12)            107.014          estimate D2E/DX2                !
 ! A21   A(8,10,11)            107.6923         estimate D2E/DX2                !
 ! A22   A(8,12,13)            108.86           estimate D2E/DX2                !
 ! A23   A(8,12,14)            111.4327         estimate D2E/DX2                !
 ! A24   A(8,12,16)            110.1733         estimate D2E/DX2                !
 ! A25   A(13,12,14)           110.4082         estimate D2E/DX2                !
 ! A26   A(13,12,16)           108.6844         estimate D2E/DX2                !
 ! A27   A(14,12,16)           107.2396         estimate D2E/DX2                !
 ! A28   A(12,14,15)           106.5711         estimate D2E/DX2                !
 ! A29   A(5,16,12)            110.82           estimate D2E/DX2                !
 ! A30   A(5,16,17)            108.3884         estimate D2E/DX2                !
 ! A31   A(5,16,18)            111.8792         estimate D2E/DX2                !
 ! A32   A(12,16,17)           109.2081         estimate D2E/DX2                !
 ! A33   A(12,16,18)           105.7562         estimate D2E/DX2                !
 ! A34   A(17,16,18)           110.7627         estimate D2E/DX2                !
 ! A35   A(16,18,19)           109.1037         estimate D2E/DX2                !
 ! A36   A(5,20,21)            108.9532         estimate D2E/DX2                !
 ! A37   A(5,20,22)            108.6343         estimate D2E/DX2                !
 ! A38   A(5,20,23)            106.2274         estimate D2E/DX2                !
 ! A39   A(21,20,22)           109.5006         estimate D2E/DX2                !
 ! A40   A(21,20,23)           112.0869         estimate D2E/DX2                !
 ! A41   A(22,20,23)           111.3113         estimate D2E/DX2                !
 ! A42   A(20,23,24)           109.4838         estimate D2E/DX2                !
 ! D1    D(2,1,3,4)             76.0713         estimate D2E/DX2                !
 ! D2    D(7,1,3,4)            -43.4574         estimate D2E/DX2                !
 ! D3    D(8,1,3,4)           -163.703          estimate D2E/DX2                !
 ! D4    D(2,1,7,5)             50.2456         estimate D2E/DX2                !
 ! D5    D(3,1,7,5)            171.1589         estimate D2E/DX2                !
 ! D6    D(8,1,7,5)            -70.794          estimate D2E/DX2                !
 ! D7    D(2,1,8,9)             31.0325         estimate D2E/DX2                !
 ! D8    D(2,1,8,10)           152.6257         estimate D2E/DX2                !
 ! D9    D(2,1,8,12)           -88.6542         estimate D2E/DX2                !
 ! D10   D(3,1,8,9)            -90.2114         estimate D2E/DX2                !
 ! D11   D(3,1,8,10)            31.3817         estimate D2E/DX2                !
 ! D12   D(3,1,8,12)           150.1019         estimate D2E/DX2                !
 ! D13   D(7,1,8,9)            151.7355         estimate D2E/DX2                !
 ! D14   D(7,1,8,10)           -86.6713         estimate D2E/DX2                !
 ! D15   D(7,1,8,12)            32.0489         estimate D2E/DX2                !
 ! D16   D(6,5,7,1)            -80.218          estimate D2E/DX2                !
 ! D17   D(16,5,7,1)            39.2936         estimate D2E/DX2                !
 ! D18   D(20,5,7,1)           163.0817         estimate D2E/DX2                !
 ! D19   D(6,5,16,12)          144.8437         estimate D2E/DX2                !
 ! D20   D(6,5,16,17)          -95.3324         estimate D2E/DX2                !
 ! D21   D(6,5,16,18)           27.0837         estimate D2E/DX2                !
 ! D22   D(7,5,16,12)           24.4521         estimate D2E/DX2                !
 ! D23   D(7,5,16,17)          144.2759         estimate D2E/DX2                !
 ! D24   D(7,5,16,18)          -93.3079         estimate D2E/DX2                !
 ! D25   D(20,5,16,12)         -95.8712         estimate D2E/DX2                !
 ! D26   D(20,5,16,17)          23.9526         estimate D2E/DX2                !
 ! D27   D(20,5,16,18)         146.3688         estimate D2E/DX2                !
 ! D28   D(6,5,20,21)          171.6715         estimate D2E/DX2                !
 ! D29   D(6,5,20,22)          -69.101          estimate D2E/DX2                !
 ! D30   D(6,5,20,23)           50.7401         estimate D2E/DX2                !
 ! D31   D(7,5,20,21)          -71.0244         estimate D2E/DX2                !
 ! D32   D(7,5,20,22)           48.203          estimate D2E/DX2                !
 ! D33   D(7,5,20,23)          168.0441         estimate D2E/DX2                !
 ! D34   D(16,5,20,21)          52.7447         estimate D2E/DX2                !
 ! D35   D(16,5,20,22)         171.9722         estimate D2E/DX2                !
 ! D36   D(16,5,20,23)         -68.1867         estimate D2E/DX2                !
 ! D37   D(1,8,10,11)          -25.686          estimate D2E/DX2                !
 ! D38   D(9,8,10,11)           94.9333         estimate D2E/DX2                !
 ! D39   D(12,8,10,11)        -146.2136         estimate D2E/DX2                !
 ! D40   D(1,8,12,13)          148.4365         estimate D2E/DX2                !
 ! D41   D(1,8,12,14)          -89.5607         estimate D2E/DX2                !
 ! D42   D(1,8,12,16)           29.3481         estimate D2E/DX2                !
 ! D43   D(9,8,12,13)           29.3152         estimate D2E/DX2                !
 ! D44   D(9,8,12,14)          151.318          estimate D2E/DX2                !
 ! D45   D(9,8,12,16)          -89.7731         estimate D2E/DX2                !
 ! D46   D(10,8,12,13)         -90.0211         estimate D2E/DX2                !
 ! D47   D(10,8,12,14)          31.9817         estimate D2E/DX2                !
 ! D48   D(10,8,12,16)         150.8905         estimate D2E/DX2                !
 ! D49   D(8,12,14,15)         -25.8888         estimate D2E/DX2                !
 ! D50   D(13,12,14,15)         95.2145         estimate D2E/DX2                !
 ! D51   D(16,12,14,15)       -146.534          estimate D2E/DX2                !
 ! D52   D(8,12,16,5)          -58.3038         estimate D2E/DX2                !
 ! D53   D(8,12,16,17)        -177.636          estimate D2E/DX2                !
 ! D54   D(8,12,16,18)          63.1318         estimate D2E/DX2                !
 ! D55   D(13,12,16,5)        -177.4992         estimate D2E/DX2                !
 ! D56   D(13,12,16,17)         63.1686         estimate D2E/DX2                !
 ! D57   D(13,12,16,18)        -56.0636         estimate D2E/DX2                !
 ! D58   D(14,12,16,5)          63.1365         estimate D2E/DX2                !
 ! D59   D(14,12,16,17)        -56.1958         estimate D2E/DX2                !
 ! D60   D(14,12,16,18)       -175.4279         estimate D2E/DX2                !
 ! D61   D(5,16,18,19)         -71.7244         estimate D2E/DX2                !
 ! D62   D(12,16,18,19)        167.5266         estimate D2E/DX2                !
 ! D63   D(17,16,18,19)         49.3264         estimate D2E/DX2                !
 ! D64   D(5,20,23,24)         165.3981         estimate D2E/DX2                !
 ! D65   D(21,20,23,24)         46.5057         estimate D2E/DX2                !
 ! D66   D(22,20,23,24)        -76.5189         estimate D2E/DX2                !
 --------------------------------------------------------------------------------
 Trust Radius=3.00D-01 FncErr=1.00D-07 GrdErr=1.00D-06
 Number of steps in this run=    142 maximum allowed number of steps=    144.
 GradGradGradGradGradGradGradGradGradGradGradGradGradGradGradGradGradGrad

                          Input orientation:                          
 ---------------------------------------------------------------------
 Center     Atomic      Atomic             Coordinates (Angstroms)
 Number     Number       Type             X           Y           Z
 ---------------------------------------------------------------------
      1          6           0        7.163758    6.958417    2.478130
      2          1           0        6.468401    6.106618    2.530497
      3          8           0        7.588093    7.343932    3.750787
      4          1           0        8.242607    6.704331    4.057986
      5          6           0        7.956443    5.978268    0.497978
      6          1           0        7.679644    4.923725    0.668441
      7          8           0        8.301773    6.578027    1.740992
      8          6           0        6.457244    8.163249    1.832231
      9          1           0        5.390874    8.115465    2.081614
     10          8           0        7.006149    9.388380    2.273494
     11          1           0        7.397801    9.238006    3.146247
     12          6           0        6.628903    8.117846    0.290589
     13          1           0        5.742279    8.563842   -0.178468
     14          8           0        7.793385    8.795409   -0.117492
     15          1           0        7.982155    9.457046    0.565754
     16          6           0        6.757279    6.673619   -0.181965
     17          1           0        6.919958    6.661945   -1.266206
     18          8           0        5.523864    6.047665    0.149604
     19          1           0        5.472702    5.195499   -0.296899
     20          6           0        9.210781    6.009417   -0.358133
     21          1           0        9.410927    7.043271   -0.658283
     22          1           0       10.051317    5.631687    0.237565
     23          8           0        8.950572    5.169989   -1.474289
     24          1           0        9.610157    5.329122   -2.156074
 ---------------------------------------------------------------------
                    Distance matrix (angstroms):
                    1          2          3          4          5
     1  C    0.000000
     2  H    1.100829   0.000000
     3  O    1.395829   2.067308   0.000000
     4  H    1.929875   2.416254   0.965323   0.000000
     5  C    2.347348   2.522276   3.547039   3.644545   0.000000
     6  H    2.771477   2.516664   3.920031   3.869948   1.103511
     7  O    1.408242   2.051048   2.266104   2.321188   1.422689
     8  C    1.538820   2.171965   2.372964   3.204675   2.966812
     9  H    2.153858   2.323366   2.865165   3.745627   3.695627
    10  O    2.443652   3.335443   2.588594   3.452152   3.960351
    11  H    2.386982   3.323932   1.997298   2.822140   4.236897
    12  C    2.532919   3.014629   3.673140   4.335359   2.526493
    13  H    3.414016   3.728766   4.509352   5.258988   3.470633
    14  O    3.241639   3.999628   4.136728   4.691377   2.888196
    15  H    3.251170   4.168577   3.842522   4.454319   3.479534
    16  C    2.706001   2.786107   4.075060   4.492697   1.543966
    17  H    3.763959   3.863580   5.107028   5.486184   2.157328
    18  O    2.990109   2.562085   4.348548   4.806061   2.458378
    19  H    3.697071   3.133006   5.047218   5.377171   2.722780
    20  C    3.624264   3.984253   4.614897   4.574097   1.518966
    21  H    3.859282   4.438930   4.780484   4.870631   2.141657
    22  H    3.888231   4.280232   4.619739   4.360919   2.139260
    23  O    4.691779   4.803827   5.820979   5.784590   2.351902
    24  H    5.487742   5.695531   6.560428   6.509680   3.193768
                    6          7          8          9         10
     6  H    0.000000
     7  O    2.067395   0.000000
     8  C    3.652833   2.433832   0.000000
     9  H    4.174055   3.309543   1.096185   0.000000
    10  O    4.791966   3.140109   1.413136   2.065489   0.000000
    11  H    4.983170   3.141241   1.940718   2.534028   0.968349
    12  C    3.383672   2.696887   1.551834   2.177268   2.385054
    13  H    4.209643   3.765474   2.171304   2.330772   2.879122
    14  O    3.952286   2.937551   2.446695   3.327229   2.586150
    15  H    4.544564   3.126035   2.367114   3.288224   1.968167
    16  C    2.153155   2.468271   2.523095   3.011607   3.668943
    17  H    2.709501   3.310543   3.473950   3.957110   4.468820
    18  O    2.485925   3.245085   2.859743   2.833045   4.227109
    19  H    2.424116   3.750737   3.782864   3.766991   5.151565
    20  C    2.139383   2.357103   4.125367   4.997949   4.816976
    21  H    3.041384   2.683877   4.022593   4.981714   4.458454
    22  H    2.512309   2.493343   4.676444   5.593694   5.246980
    23  O    2.503437   3.569529   5.109732   5.830242   5.968373
    24  H    3.445158   4.296365   5.820628   6.597277   6.548245
                   11         12         13         14         15
    11  H    0.000000
    12  C    3.162395   0.000000
    13  H    3.774781   1.097739   0.000000
    14  O    3.317283   1.407707   2.065037   0.000000
    15  H    2.654880   1.923660   2.523633   0.969652   0.000000
    16  C    4.250099   1.524985   2.145503   2.362132   3.131594
    17  H    5.131682   2.151272   2.487431   2.575672   3.506698
    18  O    4.761280   2.350880   2.546858   3.573816   4.223773
    19  H    5.648285   3.197194   3.381188   4.286853   5.020191
    20  C    5.098172   3.395939   4.311366   3.135071   3.774817
    21  H    4.831562   3.129653   4.000168   2.445176   3.060387
    22  H    5.339206   4.230451   5.228617   3.903007   4.361481
    23  O    6.348953   4.146661   4.846703   4.040253   4.845458
    24  H    6.948993   4.759308   5.416163   4.412666   5.205622
                   16         17         18         19         20
    16  C    0.000000
    17  H    1.096439   0.000000
    18  O    1.422346   2.081091   0.000000
    19  H    1.961679   2.276965   0.963415   0.000000
    20  C    2.547915   2.549169   3.721910   3.826153   0.000000
    21  H    2.721281   2.592279   4.093064   4.365144   1.094990
    22  H    3.480276   3.623282   4.547374   4.630295   1.097286
    23  O    2.956609   2.528364   3.892258   3.671849   1.420617
    24  H    3.720711   3.131366   4.746604   4.537942   1.963389
                   21         22         23         24
    21  H    0.000000
    22  H    1.790311   0.000000
    23  O    2.094511   2.086924   0.000000
    24  H    2.285033   2.452688   0.961876   0.000000
 Symmetry turned off by external request.
 Stoichiometry    C6H12O6
 Framework group  C1[X(C6H12O6)]
 Deg. of freedom    66
 Full point group                 C1      NOp   1
 Rotational constants (GHZ):      1.3829505      0.7190513      0.6676671
 Standard basis: 6-311+G(2df,p) (5D, 7F)
 Integral buffers will be    131072 words long.
 Raffenetti 2 integral format.
 Two-electron integral symmetry is turned off.
   480 basis functions,   720 primitive gaussians,   540 cartesian basis functions
    48 alpha electrons       48 beta electrons
       nuclear repulsion energy       850.3791288879 Hartrees.
 NAtoms=   24 NActive=   24 NUniq=   24 SFac= 1.00D+00 NAtFMM=   60 NAOKFM=F Big=F
 One-electron integrals computed using PRISM.
 NBasis=   480 RedAO= T  NBF=   480
 NBsUse=   480 1.00D-06 NBFU=   480
 Initial guess read from the checkpoint file:  /home/mayes/gaussian/bmannose/bman_oe_256con2relaxb3lrel.chk
 B after Tr=     0.000000    0.000000    0.000000
         Rot=    1.000000    0.000000    0.000000    0.000000 Ang=   0.00 deg.
 Requested convergence on RMS density matrix=1.00D-08 within  64 cycles.
 Requested convergence on MAX density matrix=1.00D-06.
 Requested convergence on             energy=1.00D-06.
 No special actions if energy rises.
 SCF Done:  E(RB3LYP) =  -687.418452465     A.U. after   11 cycles
             Convg  =    0.5428D-08             -V/T =  2.0035
 QCSCF skips out because SCF is already converged.

 **********************************************************************

            Population analysis using the SCF density.

 **********************************************************************

 Alpha  occ. eigenvalues --  -19.15540 -19.14297 -19.13838 -19.13613 -19.13422
 Alpha  occ. eigenvalues --  -19.11757 -10.28174 -10.23171 -10.22965 -10.22889
 Alpha  occ. eigenvalues --  -10.22603 -10.21928  -1.10032  -1.04930  -1.04621
 Alpha  occ. eigenvalues --   -1.03671  -1.02797  -1.01353  -0.78648  -0.77822
 Alpha  occ. eigenvalues --   -0.69907  -0.65934  -0.62841  -0.57721  -0.56227
 Alpha  occ. eigenvalues --   -0.55715  -0.53994  -0.52625  -0.51169  -0.48677
 Alpha  occ. eigenvalues --   -0.48000  -0.46150  -0.44777  -0.43415  -0.42032
 Alpha  occ. eigenvalues --   -0.40529  -0.39335  -0.37645  -0.37408  -0.36702
 Alpha  occ. eigenvalues --   -0.34741  -0.33394  -0.32953  -0.30364  -0.29595
 Alpha  occ. eigenvalues --   -0.29009  -0.28305  -0.25765
 Alpha virt. eigenvalues --   -0.00919  -0.00487   0.00170   0.01973   0.03350
 Alpha virt. eigenvalues --    0.03459   0.04080   0.04620   0.05338   0.07141
 Alpha virt. eigenvalues --    0.07656   0.08422   0.09043   0.09775   0.10576
 Alpha virt. eigenvalues --    0.11282   0.11543   0.11957   0.12206   0.13197
 Alpha virt. eigenvalues --    0.14010   0.14407   0.14905   0.15614   0.16586
 Alpha virt. eigenvalues --    0.16845   0.17058   0.17918   0.18751   0.18830
 Alpha virt. eigenvalues --    0.19397   0.19877   0.20235   0.20719   0.21111
 Alpha virt. eigenvalues --    0.21334   0.21930   0.22267   0.23329   0.23672
 Alpha virt. eigenvalues --    0.24116   0.24366   0.25393   0.25535   0.26254
 Alpha virt. eigenvalues --    0.26378   0.26778   0.27945   0.28908   0.29428
 Alpha virt. eigenvalues --    0.30043   0.30238   0.30664   0.31472   0.32086
 Alpha virt. eigenvalues --    0.32227   0.33330   0.33896   0.34758   0.34949
 Alpha virt. eigenvalues --    0.35984   0.36478   0.36768   0.37926   0.38771
 Alpha virt. eigenvalues --    0.39215   0.39710   0.40576   0.41423   0.42601
 Alpha virt. eigenvalues --    0.44205   0.44366   0.47067   0.49466   0.50162
 Alpha virt. eigenvalues --    0.51269   0.51791   0.52690   0.54218   0.54693
 Alpha virt. eigenvalues --    0.55843   0.56210   0.57583   0.58242   0.59051
 Alpha virt. eigenvalues --    0.60204   0.60545   0.62598   0.63223   0.63473
 Alpha virt. eigenvalues --    0.64945   0.65574   0.66520   0.67005   0.67705
 Alpha virt. eigenvalues --    0.69250   0.70079   0.70834   0.71708   0.72667
 Alpha virt. eigenvalues --    0.73358   0.74486   0.77385   0.83548   0.84116
 Alpha virt. eigenvalues --    0.85183   0.87553   0.88225   0.91101   0.91563
 Alpha virt. eigenvalues --    0.94627   0.95481   0.98667   1.00573   1.01950
 Alpha virt. eigenvalues --    1.03404   1.04072   1.05103   1.06358   1.07656
 Alpha virt. eigenvalues --    1.08458   1.10397   1.10632   1.11786   1.12136
 Alpha virt. eigenvalues --    1.12889   1.13600   1.14669   1.15436   1.16652
 Alpha virt. eigenvalues --    1.16917   1.17477   1.19176   1.20280   1.20643
 Alpha virt. eigenvalues --    1.21549   1.22588   1.23852   1.25602   1.26703
 Alpha virt. eigenvalues --    1.28749   1.29544   1.31304   1.33114   1.34032
 Alpha virt. eigenvalues --    1.35143   1.36721   1.37268   1.38416   1.39972
 Alpha virt. eigenvalues --    1.40108   1.41442   1.42063   1.45292   1.46438
 Alpha virt. eigenvalues --    1.47724   1.50257   1.50859   1.52122   1.52789
 Alpha virt. eigenvalues --    1.55643   1.56051   1.58337   1.59129   1.60971
 Alpha virt. eigenvalues --    1.62853   1.64379   1.65124   1.67472   1.69348
 Alpha virt. eigenvalues --    1.70882   1.71700   1.73886   1.76135   1.76871
 Alpha virt. eigenvalues --    1.80107   1.80606   1.83746   1.84429   1.85987
 Alpha virt. eigenvalues --    1.87397   1.87810   1.90913   1.94243   1.96638
 Alpha virt. eigenvalues --    1.98058   1.98729   2.00079   2.04587   2.04819
 Alpha virt. eigenvalues --    2.06568   2.08262   2.08929   2.12809   2.13032
 Alpha virt. eigenvalues --    2.14472   2.16280   2.18638   2.19188   2.20654
 Alpha virt. eigenvalues --    2.21169   2.22630   2.23987   2.25538   2.27075
 Alpha virt. eigenvalues --    2.28317   2.30206   2.32830   2.33214   2.34578
 Alpha virt. eigenvalues --    2.36253   2.36971   2.37391   2.39170   2.44115
 Alpha virt. eigenvalues --    2.44414   2.46055   2.47315   2.48964   2.51311
 Alpha virt. eigenvalues --    2.52254   2.55980   2.56537   2.57868   2.59536
 Alpha virt. eigenvalues --    2.60961   2.62204   2.63729   2.66871   2.67575
 Alpha virt. eigenvalues --    2.69798   2.71274   2.74770   2.74859   2.77531
 Alpha virt. eigenvalues --    2.83344   2.84004   2.86155   2.88852   2.90147
 Alpha virt. eigenvalues --    2.91675   2.92974   2.95790   2.96753   2.97356
 Alpha virt. eigenvalues --    3.01119   3.02981   3.05819   3.07101   3.07955
 Alpha virt. eigenvalues --    3.11190   3.13291   3.15797   3.19276   3.19628
 Alpha virt. eigenvalues --    3.23408   3.24650   3.28056   3.30091   3.31744
 Alpha virt. eigenvalues --    3.33942   3.35225   3.35855   3.37408   3.39942
 Alpha virt. eigenvalues --    3.40333   3.41741   3.43841   3.45483   3.46597
 Alpha virt. eigenvalues --    3.50022   3.50351   3.51948   3.52406   3.55735
 Alpha virt. eigenvalues --    3.57684   3.58784   3.60724   3.63958   3.64875
 Alpha virt. eigenvalues --    3.66370   3.67029   3.68464   3.69980   3.72792
 Alpha virt. eigenvalues --    3.74121   3.75738   3.76173   3.78853   3.79228
 Alpha virt. eigenvalues --    3.80264   3.83001   3.84797   3.85122   3.87987
 Alpha virt. eigenvalues --    3.89314   3.93501   3.94548   3.96577   3.98985
 Alpha virt. eigenvalues --    3.99408   4.01556   4.03407   4.06299   4.07094
 Alpha virt. eigenvalues --    4.10412   4.13461   4.14585   4.15964   4.18093
 Alpha virt. eigenvalues --    4.23814   4.26649   4.30365   4.32565   4.37027
 Alpha virt. eigenvalues --    4.38610   4.43327   4.47753   4.51542   4.52857
 Alpha virt. eigenvalues --    4.58149   4.61509   4.68627   4.71709   4.77117
 Alpha virt. eigenvalues --    4.90264   4.94147   5.01158   5.08045   5.08444
 Alpha virt. eigenvalues --    5.09894   5.12002   5.14771   5.14956   5.15303
 Alpha virt. eigenvalues --    5.15711   5.17105   5.17343   5.18161   5.18469
 Alpha virt. eigenvalues --    5.18836   5.20382   5.22170   5.23773   5.24940
 Alpha virt. eigenvalues --    5.25533   5.26886   5.27288   5.28650   5.31517
 Alpha virt. eigenvalues --    5.32820   5.34564   5.35374   5.35783   5.37471
 Alpha virt. eigenvalues --    5.38100   5.39293   5.41721   5.42545   5.44016
 Alpha virt. eigenvalues --    5.45601   5.49403   5.50923   5.52649   5.56874
 Alpha virt. eigenvalues --    5.70946   5.73121   5.74711   5.76465   5.77320
 Alpha virt. eigenvalues --    5.80368   5.82900   5.84739   5.87882   5.90430
 Alpha virt. eigenvalues --    5.94975   5.96254   6.15318   6.27636   6.29263
 Alpha virt. eigenvalues --    6.32375   6.33157   6.35230   6.44621   6.48244
 Alpha virt. eigenvalues --    6.54311   6.57418   6.60239   6.63226   6.74756
 Alpha virt. eigenvalues --    6.93487   6.95340   6.96077   6.97740   6.99838
 Alpha virt. eigenvalues --    7.13080   7.14623   7.17656   7.18220   7.19518
 Alpha virt. eigenvalues --    7.22726   7.24420   7.26311   7.28065   7.30896
 Alpha virt. eigenvalues --    7.32012   7.33729   7.40651   7.46462   7.50147
 Alpha virt. eigenvalues --    7.52371   7.54291   7.58210   7.58536   7.62243
 Alpha virt. eigenvalues --    7.64375   7.67021   7.70957   7.83345   7.88097
 Alpha virt. eigenvalues --   24.31549  24.33334  24.40145  24.46897  24.47313
 Alpha virt. eigenvalues --   24.50605  49.98859  50.00749  50.03380  50.04119
 Alpha virt. eigenvalues --   50.05739  50.16962
          Condensed to atoms (all electrons):
              1          2          3          4          5          6
     1  C    6.086646   0.486724   0.197214   0.024121  -0.472988   0.020953
     2  H    0.486724   0.593501  -0.039704  -0.005135  -0.011506   0.009826
     3  O    0.197214  -0.039704   8.148885   0.228067  -0.061316   0.002983
     4  H    0.024121  -0.005135   0.228067   0.454341   0.000971  -0.000550
     5  C   -0.472988  -0.011506  -0.061316   0.000971   8.622417   0.319444
     6  H    0.020953   0.009826   0.002983  -0.000550   0.319444   0.614474
     7  O    0.069961  -0.082121  -0.010034   0.017690   0.171609  -0.064593
     8  C   -0.965165  -0.107535  -0.122499  -0.000356   0.424172  -0.013832
     9  H   -0.047172  -0.006058   0.002335  -0.000784  -0.019703   0.000314
    10  O    0.047183   0.007205  -0.010078  -0.002223  -0.024272   0.000221
    11  H   -0.100265  -0.000617   0.018820  -0.001641   0.000346  -0.000035
    12  C    0.608183  -0.001164   0.054910  -0.010345  -0.120681   0.021373
    13  H    0.011823  -0.000670  -0.001189   0.000111   0.007022  -0.000705
    14  O   -0.008273   0.001756  -0.004151   0.000901  -0.059370   0.000475
    15  H   -0.012172  -0.000455  -0.001581   0.000075   0.019063  -0.000174
    16  C   -0.070257   0.009799   0.024719  -0.005125  -0.975014  -0.033487
    17  H   -0.006292   0.000046   0.000109  -0.000007  -0.041983   0.000793
    18  O   -0.027800  -0.004202   0.000426   0.000129  -0.006860  -0.007243
    19  H   -0.008497  -0.000257   0.000046  -0.000001  -0.025175   0.001863
    20  C   -0.005665   0.017896   0.008040  -0.002910  -1.474929   0.012814
    21  H    0.006629   0.000000   0.000231   0.000012  -0.091080   0.007047
    22  H   -0.002401   0.000007   0.000070   0.000015  -0.139705  -0.006079
    23  O    0.006566   0.000375   0.000111   0.000008   0.001583   0.001777
    24  H   -0.000551   0.000004   0.000003  -0.000001  -0.062697  -0.000331
              7          8          9         10         11         12
     1  C    0.069961  -0.965165  -0.047172   0.047183  -0.100265   0.608183
     2  H   -0.082121  -0.107535  -0.006058   0.007205  -0.000617  -0.001164
     3  O   -0.010034  -0.122499   0.002335  -0.010078   0.018820   0.054910
     4  H    0.017690  -0.000356  -0.000784  -0.002223  -0.001641  -0.010345
     5  C    0.171609   0.424172  -0.019703  -0.024272   0.000346  -0.120681
     6  H   -0.064593  -0.013832   0.000314   0.000221  -0.000035   0.021373
     7  O    8.100598   0.035155   0.008145   0.007261  -0.001377  -0.095119
     8  C    0.035155   7.539458   0.475581   0.129825   0.099700  -1.317060
     9  H    0.008145   0.475581   0.590496  -0.047433  -0.001706  -0.111941
    10  O    0.007261   0.129825  -0.047433   8.109304   0.255562  -0.101889
    11  H   -0.001377   0.099700  -0.001706   0.255562   0.425653   0.004334
    12  C   -0.095119  -1.317060  -0.111941  -0.101889   0.004334   7.099869
    13  H   -0.001224  -0.022455  -0.009924   0.004661  -0.001310   0.452407
    14  O    0.034797   0.091500   0.004460  -0.020535  -0.003688   0.134234
    15  H   -0.006890  -0.055197  -0.000598   0.022917  -0.001821   0.059447
    16  C    0.051959  -0.246807   0.040264   0.024121  -0.000513  -0.214684
    17  H    0.004209   0.005522  -0.000313  -0.000674   0.000047  -0.044967
    18  O   -0.003910  -0.019687  -0.005061  -0.000477  -0.000006  -0.056725
    19  H    0.000866   0.017013   0.000370   0.000070   0.000000  -0.039835
    20  C   -0.063602   0.126147   0.001339   0.005970  -0.000828  -0.164069
    21  H    0.009321  -0.014226   0.000007  -0.000263   0.000065   0.030602
    22  H    0.004036   0.004235  -0.000002   0.000086  -0.000018  -0.012313
    23  O    0.001553   0.002125  -0.000022   0.000007  -0.000014  -0.046156
    24  H    0.000129  -0.001374   0.000000  -0.000004   0.000000   0.006076
             13         14         15         16         17         18
     1  C    0.011823  -0.008273  -0.012172  -0.070257  -0.006292  -0.027800
     2  H   -0.000670   0.001756  -0.000455   0.009799   0.000046  -0.004202
     3  O   -0.001189  -0.004151  -0.001581   0.024719   0.000109   0.000426
     4  H    0.000111   0.000901   0.000075  -0.005125  -0.000007   0.000129
     5  C    0.007022  -0.059370   0.019063  -0.975014  -0.041983  -0.006860
     6  H   -0.000705   0.000475  -0.000174  -0.033487   0.000793  -0.007243
     7  O   -0.001224   0.034797  -0.006890   0.051959   0.004209  -0.003910
     8  C   -0.022455   0.091500  -0.055197  -0.246807   0.005522  -0.019687
     9  H   -0.009924   0.004460  -0.000598   0.040264  -0.000313  -0.005061
    10  O    0.004661  -0.020535   0.022917   0.024121  -0.000674  -0.000477
    11  H   -0.001310  -0.003688  -0.001821  -0.000513   0.000047  -0.000006
    12  C    0.452407   0.134234   0.059447  -0.214684  -0.044967  -0.056725
    13  H    0.605713  -0.056126  -0.000584  -0.107120  -0.006039   0.004977
    14  O   -0.056126   8.068464   0.254956  -0.110874  -0.000919   0.007498
    15  H   -0.000584   0.254956   0.431547  -0.005543   0.000200  -0.000542
    16  C   -0.107120  -0.110874  -0.005543   6.707182   0.431671   0.143403
    17  H   -0.006039  -0.000919   0.000200   0.431671   0.563867  -0.041911
    18  O    0.004977   0.007498  -0.000542   0.143403  -0.041911   8.138270
    19  H   -0.000710  -0.000752   0.000066   0.069672  -0.011581   0.237395
    20  C    0.001683   0.035690  -0.003278   0.160269   0.010241   0.024450
    21  H   -0.000627  -0.016139   0.000842   0.002272   0.001577  -0.000040
    22  H    0.000055   0.003045  -0.000183   0.024840  -0.000241  -0.000702
    23  O    0.000198   0.004262  -0.000057   0.083719  -0.007389  -0.002290
    24  H   -0.000010   0.000232   0.000029  -0.007927  -0.000506   0.000198
             19         20         21         22         23         24
     1  C   -0.008497  -0.005665   0.006629  -0.002401   0.006566  -0.000551
     2  H   -0.000257   0.017896   0.000000   0.000007   0.000375   0.000004
     3  O    0.000046   0.008040   0.000231   0.000070   0.000111   0.000003
     4  H   -0.000001  -0.002910   0.000012   0.000015   0.000008  -0.000001
     5  C   -0.025175  -1.474929  -0.091080  -0.139705   0.001583  -0.062697
     6  H    0.001863   0.012814   0.007047  -0.006079   0.001777  -0.000331
     7  O    0.000866  -0.063602   0.009321   0.004036   0.001553   0.000129
     8  C    0.017013   0.126147  -0.014226   0.004235   0.002125  -0.001374
     9  H    0.000370   0.001339   0.000007  -0.000002  -0.000022   0.000000
    10  O    0.000070   0.005970  -0.000263   0.000086   0.000007  -0.000004
    11  H    0.000000  -0.000828   0.000065  -0.000018  -0.000014   0.000000
    12  C   -0.039835  -0.164069   0.030602  -0.012313  -0.046156   0.006076
    13  H   -0.000710   0.001683  -0.000627   0.000055   0.000198  -0.000010
    14  O   -0.000752   0.035690  -0.016139   0.003045   0.004262   0.000232
    15  H    0.000066  -0.003278   0.000842  -0.000183  -0.000057   0.000029
    16  C    0.069672   0.160269   0.002272   0.024840   0.083719  -0.007927
    17  H   -0.011581   0.010241   0.001577  -0.000241  -0.007389  -0.000506
    18  O    0.237395   0.024450  -0.000040  -0.000702  -0.002290   0.000198
    19  H    0.460425   0.004137   0.000024   0.000003  -0.000420   0.000088
    20  C    0.004137   6.493561   0.445952   0.498712   0.082091   0.066940
    21  H    0.000024   0.445952   0.543040  -0.048540  -0.041199  -0.010141
    22  H    0.000003   0.498712  -0.048540   0.594818  -0.045248  -0.001640
    23  O   -0.000420   0.082091  -0.041199  -0.045248   8.091323   0.235090
    24  H    0.000088   0.066940  -0.010141  -0.001640   0.235090   0.488308
 Mulliken atomic charges:
              1
     1  C    0.161495
     2  H    0.132285
     3  O   -0.436418
     4  H    0.302636
     5  C    0.020651
     6  H    0.112674
     7  O   -0.188419
     8  C   -0.064239
     9  H    0.127408
    10  O   -0.406548
    11  H    0.309312
    12  C   -0.134485
    13  H    0.120041
    14  O   -0.361445
    15  H    0.299932
    16  C    0.003459
    17  H    0.144537
    18  O   -0.379292
    19  H    0.295189
    20  C   -0.280652
    21  H    0.174635
    22  H    0.127150
    23  O   -0.367992
    24  H    0.288085
 Sum of Mulliken atomic charges =   0.00000
 Mulliken charges with hydrogens summed into heavy atoms:
              1
     1  C    0.293781
     3  O   -0.133782
     5  C    0.133325
     7  O   -0.188419
     8  C    0.063168
    10  O   -0.097235
    12  C   -0.014444
    14  O   -0.061513
    16  C    0.147996
    18  O   -0.084103
    20  C    0.021133
    23  O   -0.079907
 Sum of Mulliken charges with hydrogens summed into heavy atoms =   0.00000
 Electronic spatial extent (au):  <R**2>=          38601.7326
 Charge=              0.0000 electrons
 Dipole moment (field-independent basis, Debye):
    X=              1.1380    Y=             -2.1256    Z=              0.1284  Tot=              2.4145
 Quadrupole moment (field-independent basis, Debye-Ang):
   XX=            -51.8747   YY=           -104.3460   ZZ=            -65.7031
   XY=             -6.7427   XZ=              1.5703   YZ=             -0.8635
 Traceless Quadrupole moment (field-independent basis, Debye-Ang):
   XX=             22.0999   YY=            -30.3714   ZZ=              8.2715
   XY=             -6.7427   XZ=              1.5703   YZ=             -0.8635
 Octapole moment (field-independent basis, Debye-Ang**2):
  XXX=          -1330.4206  YYY=          -1904.2022  ZZZ=           -179.0770  XYY=           -709.0832
  XXY=           -476.4091  XXZ=            -58.4853  XZZ=           -466.8923  YZZ=           -479.5250
  YYZ=            -78.1747  XYZ=              1.1740
 Hexadecapole moment (field-independent basis, Debye-Ang**3):
 XXXX=         -21066.1649 YYYY=         -26368.2581 ZZZZ=          -1239.2882 XXXY=         -10187.1586
 XXXZ=          -1453.7660 YYYX=         -13539.5141 YYYZ=          -1680.5036 ZZZX=          -1196.4154
 ZZZY=          -1464.2868 XXYY=          -8524.6064 XXZZ=          -3593.6542 YYZZ=          -3840.9826
 XXYZ=           -503.6074 YYXZ=           -454.8725 ZZXY=          -3390.2832
 N-N= 8.503791288879D+02 E-N=-3.316148841240D+03  KE= 6.850232050394D+02
 Calling FoFJK, ICntrl=      2127 FMM=F ISym2X=0 I1Cent= 0 IOpClX= 0 NMat=1 NMatS=1 NMatT=0.
 -------------------------------------------------------------------
 Center     Atomic                   Forces (Hartrees/Bohr)
 Number     Number              X              Y              Z
 -------------------------------------------------------------------
      1        6          -0.001899224   -0.000661964    0.000536434
      2        1           0.000883256    0.001522302    0.000488003
      3        8           0.001725163   -0.000787306    0.004029687
      4        1          -0.000741195    0.000824206    0.000168547
      5        6           0.001379541   -0.002321098   -0.002086377
      6        1           0.000382154    0.001639471   -0.000541497
      7        8           0.000853153   -0.001665464    0.001732259
      8        6          -0.002086315   -0.001189576   -0.000419268
      9        1           0.001354586    0.000364278   -0.000262544
     10        8           0.000367768    0.004342307    0.002739388
     11        1          -0.000213327   -0.000211880   -0.000993016
     12        6          -0.002671929   -0.001328600   -0.000675344
     13        1           0.000924230   -0.000334850    0.000554358
     14        8           0.001688668    0.004402049   -0.001569244
     15        1          -0.000487799   -0.000501329   -0.000177048
     16        6           0.001752935    0.001589638   -0.002170484
     17        1          -0.000875069   -0.000169962    0.002230931
     18        8          -0.004455966   -0.003950637   -0.002019773
     19        1          -0.000197735    0.000946922    0.000510880
     20        6           0.000836859    0.001802680    0.002542183
     21        1           0.000708648   -0.002410096    0.000181965
     22        1          -0.000315055    0.000620563   -0.000843934
     23        8           0.001607482   -0.002335938   -0.004528863
     24        1          -0.000520828   -0.000185716    0.000572758
 -------------------------------------------------------------------
 Cartesian Forces:  Max     0.004528863 RMS     0.001769306

 GradGradGradGradGradGradGradGradGradGradGradGradGradGradGradGradGradGrad
 Berny optimization.
 Internal  Forces:  Max     0.005016454 RMS     0.001482235
 Search for a local minimum.
 Step number   1 out of a maximum of  142
 All quantities printed in internal units (Hartrees-Bohrs-Radians)
 Mixed Optimization -- RFO/linear search
 Second derivative matrix not updated -- first step.
 ITU=  0
     Eigenvalues ---    0.00323   0.00515   0.00541   0.01396   0.01419
     Eigenvalues ---    0.01518   0.01537   0.01590   0.01747   0.03232
     Eigenvalues ---    0.03566   0.04442   0.04638   0.04725   0.04895
     Eigenvalues ---    0.05241   0.05512   0.05678   0.06199   0.06216
     Eigenvalues ---    0.06621   0.06734   0.06961   0.07095   0.07846
     Eigenvalues ---    0.09485   0.10355   0.10746   0.12697   0.13459
     Eigenvalues ---    0.15370   0.16000   0.16000   0.16000   0.16000
     Eigenvalues ---    0.16000   0.16390   0.17620   0.18373   0.19839
     Eigenvalues ---    0.20928   0.22021   0.25924   0.26600   0.27976
     Eigenvalues ---    0.29004   0.30466   0.33297   0.33591   0.33933
     Eigenvalues ---    0.33984   0.34079   0.34108   0.34242   0.39744
     Eigenvalues ---    0.41661   0.42109   0.42368   0.43511   0.44367
     Eigenvalues ---    0.46319   0.53448   0.53716   0.54344   0.54745
     Eigenvalues ---    0.55072
 RFO step:  Lambda=-2.18218678D-03 EMin= 3.22696940D-03
 Linear search not attempted -- first point.
 Iteration  1 RMS(Cart)=  0.06244779 RMS(Int)=  0.00104107
 Iteration  2 RMS(Cart)=  0.00170793 RMS(Int)=  0.00015255
 Iteration  3 RMS(Cart)=  0.00000125 RMS(Int)=  0.00015255
 Iteration  4 RMS(Cart)=  0.00000000 RMS(Int)=  0.00015255
 Variable       Old X    -DE/DX   Delta X   Delta X   Delta X     New X
                                 (Linear)    (Quad)   (Total)
    R1        2.08027  -0.00172   0.00000  -0.00509  -0.00509   2.07518
    R2        2.63774   0.00415   0.00000   0.00891   0.00891   2.64664
    R3        2.66119   0.00316   0.00000   0.00770   0.00776   2.66896
    R4        2.90795   0.00296   0.00000   0.01000   0.01013   2.91808
    R5        1.82420  -0.00100   0.00000  -0.00183  -0.00183   1.82236
    R6        2.08533  -0.00174   0.00000  -0.00520  -0.00520   2.08013
    R7        2.68849   0.00477   0.00000   0.01072   0.01081   2.69931
    R8        2.91767   0.00401   0.00000   0.01348   0.01340   2.93108
    R9        2.87043   0.00301   0.00000   0.00982   0.00982   2.88025
   R10        2.07149  -0.00140   0.00000  -0.00407  -0.00407   2.06742
   R11        2.67044   0.00420   0.00000   0.00960   0.00960   2.68004
   R12        2.93254   0.00317   0.00000   0.01126   0.01124   2.94378
   R13        1.82991  -0.00096   0.00000  -0.00177  -0.00177   1.82814
   R14        2.07443  -0.00112   0.00000  -0.00327  -0.00327   2.07115
   R15        2.66018   0.00338   0.00000   0.00758   0.00758   2.66776
   R16        2.88180   0.00369   0.00000   0.01321   0.01303   2.89484
   R17        1.83238  -0.00057   0.00000  -0.00106  -0.00106   1.83131
   R18        2.07197  -0.00234   0.00000  -0.00681  -0.00681   2.06516
   R19        2.68784   0.00502   0.00000   0.01185   0.01185   2.69970
   R20        1.82059  -0.00107   0.00000  -0.00194  -0.00194   1.81865
   R21        2.06923  -0.00220   0.00000  -0.00639  -0.00639   2.06284
   R22        2.07357  -0.00091   0.00000  -0.00267  -0.00267   2.07090
   R23        2.68458   0.00441   0.00000   0.01035   0.01035   2.69493
   R24        1.81768  -0.00080   0.00000  -0.00145  -0.00145   1.81623
    A1        1.94160  -0.00061   0.00000  -0.00916  -0.00918   1.93242
    A2        1.90323  -0.00042   0.00000  -0.00434  -0.00428   1.89895
    A3        1.91324  -0.00090   0.00000  -0.00972  -0.00966   1.90358
    A4        1.88199   0.00052   0.00000   0.00555   0.00557   1.88756
    A5        1.88181   0.00118   0.00000   0.00720   0.00721   1.88902
    A6        1.94207   0.00027   0.00000   0.01086   0.01053   1.95260
    A7        1.88944   0.00091   0.00000   0.00562   0.00562   1.89506
    A8        1.90581   0.00060   0.00000  -0.00504  -0.00490   1.90091
    A9        1.87926  -0.00076   0.00000  -0.00886  -0.00879   1.87046
   A10        1.88998  -0.00144   0.00000  -0.01445  -0.01446   1.87552
   A11        1.96431  -0.00137   0.00000   0.00555   0.00500   1.96931
   A12        1.85808  -0.00030   0.00000   0.00420   0.00409   1.86217
   A13        1.96484   0.00322   0.00000   0.01739   0.01757   1.98241
   A14        1.95525   0.00227   0.00000   0.01948   0.01910   1.97435
   A15        1.89338  -0.00080   0.00000  -0.00931  -0.00921   1.88417
   A16        1.94915   0.00108   0.00000   0.00805   0.00808   1.95723
   A17        1.92121   0.00020   0.00000   0.01263   0.01214   1.93335
   A18        1.92263  -0.00054   0.00000  -0.01125  -0.01129   1.91134
   A19        1.90958   0.00025   0.00000  -0.00646  -0.00625   1.90333
   A20        1.86775  -0.00018   0.00000   0.00633   0.00625   1.87400
   A21        1.87958  -0.00053   0.00000  -0.00330  -0.00330   1.87629
   A22        1.89997   0.00006   0.00000  -0.00731  -0.00711   1.89285
   A23        1.94487  -0.00101   0.00000  -0.00041  -0.00067   1.94420
   A24        1.92289   0.00106   0.00000   0.01832   0.01763   1.94052
   A25        1.92699  -0.00073   0.00000  -0.01800  -0.01809   1.90889
   A26        1.89690  -0.00051   0.00000  -0.00922  -0.00890   1.88800
   A27        1.87168   0.00115   0.00000   0.01676   0.01677   1.88845
   A28        1.86002  -0.00082   0.00000  -0.00504  -0.00504   1.85498
   A29        1.93417   0.00065   0.00000   0.01904   0.01837   1.95254
   A30        1.89173   0.00018   0.00000  -0.00193  -0.00175   1.88999
   A31        1.95266  -0.00004   0.00000   0.00262   0.00255   1.95521
   A32        1.90604  -0.00022   0.00000  -0.00448  -0.00427   1.90177
   A33        1.84579   0.00039   0.00000   0.00608   0.00608   1.85187
   A34        1.93317  -0.00097   0.00000  -0.02137  -0.02147   1.91170
   A35        1.90422   0.00044   0.00000   0.00272   0.00272   1.90694
   A36        1.90159   0.00048   0.00000   0.00842   0.00839   1.90998
   A37        1.89603  -0.00053   0.00000  -0.00191  -0.00188   1.89415
   A38        1.85402   0.00306   0.00000   0.01582   0.01577   1.86979
   A39        1.91115  -0.00036   0.00000  -0.00866  -0.00869   1.90246
   A40        1.95629  -0.00128   0.00000  -0.00412  -0.00427   1.95201
   A41        1.94275  -0.00123   0.00000  -0.00838  -0.00840   1.93435
   A42        1.91085   0.00006   0.00000   0.00035   0.00035   1.91120
    D1        1.32769  -0.00003   0.00000  -0.00239  -0.00239   1.32530
    D2       -0.75847   0.00052   0.00000   0.00484   0.00477  -0.75371
    D3       -2.85716  -0.00075   0.00000  -0.01522  -0.01516  -2.87231
    D4        0.87695   0.00038   0.00000   0.02604   0.02600   0.90295
    D5        2.98729  -0.00029   0.00000   0.01576   0.01574   3.00303
    D6       -1.23559   0.00162   0.00000   0.03412   0.03422  -1.20136
    D7        0.54162  -0.00015   0.00000  -0.02329  -0.02330   0.51832
    D8        2.66382  -0.00067   0.00000  -0.03849  -0.03848   2.62534
    D9       -1.54731  -0.00008   0.00000  -0.01722  -0.01718  -1.56449
   D10       -1.57449   0.00041   0.00000  -0.01081  -0.01084  -1.58532
   D11        0.54771  -0.00012   0.00000  -0.02601  -0.02601   0.52170
   D12        2.61977   0.00047   0.00000  -0.00474  -0.00472   2.61506
   D13        2.64828  -0.00110   0.00000  -0.02817  -0.02835   2.61994
   D14       -1.51270  -0.00163   0.00000  -0.04337  -0.04352  -1.55622
   D15        0.55936  -0.00104   0.00000  -0.02211  -0.02222   0.53713
   D16       -1.40007  -0.00011   0.00000   0.01745   0.01732  -1.38275
   D17        0.68580  -0.00153   0.00000   0.00645   0.00616   0.69196
   D18        2.84631   0.00144   0.00000   0.03470   0.03454   2.88085
   D19        2.52800  -0.00023   0.00000  -0.05606  -0.05619   2.47181
   D20       -1.66387   0.00001   0.00000  -0.05133  -0.05142  -1.71528
   D21        0.47270  -0.00111   0.00000  -0.07783  -0.07787   0.39483
   D22        0.42677   0.00037   0.00000  -0.04727  -0.04729   0.37948
   D23        2.51809   0.00060   0.00000  -0.04253  -0.04252   2.47557
   D24       -1.62853  -0.00052   0.00000  -0.06903  -0.06897  -1.69750
   D25       -1.67327  -0.00058   0.00000  -0.06935  -0.06948  -1.74275
   D26        0.41805  -0.00035   0.00000  -0.06461  -0.06470   0.35335
   D27        2.55462  -0.00147   0.00000  -0.09111  -0.09116   2.46346
   D28        2.99623   0.00028   0.00000  -0.01085  -0.01085   2.98538
   D29       -1.20604  -0.00018   0.00000  -0.01753  -0.01758  -1.22362
   D30        0.88558  -0.00022   0.00000  -0.01964  -0.01972   0.86586
   D31       -1.23961   0.00010   0.00000  -0.02180  -0.02165  -1.26126
   D32        0.84130  -0.00036   0.00000  -0.02848  -0.02838   0.81292
   D33        2.93292  -0.00040   0.00000  -0.03059  -0.03052   2.90240
   D34        0.92057   0.00022   0.00000  -0.00090  -0.00091   0.91966
   D35        3.00148  -0.00024   0.00000  -0.00758  -0.00764   2.99384
   D36       -1.19008  -0.00028   0.00000  -0.00968  -0.00978  -1.19986
   D37       -0.44831   0.00065   0.00000   0.02278   0.02264  -0.42566
   D38        1.65690  -0.00001   0.00000   0.00871   0.00869   1.66559
   D39       -2.55191  -0.00012   0.00000  -0.00152  -0.00137  -2.55328
   D40        2.59071  -0.00059   0.00000  -0.02834  -0.02848   2.56223
   D41       -1.56313  -0.00211   0.00000  -0.05613  -0.05617  -1.61930
   D42        0.51222  -0.00063   0.00000  -0.02353  -0.02368   0.48855
   D43        0.51165   0.00012   0.00000  -0.02063  -0.02066   0.49099
   D44        2.64100  -0.00141   0.00000  -0.04842  -0.04835   2.59265
   D45       -1.56684   0.00007   0.00000  -0.01582  -0.01586  -1.58269
   D46       -1.57116   0.00073   0.00000  -0.00730  -0.00735  -1.57851
   D47        0.55819  -0.00080   0.00000  -0.03509  -0.03504   0.52315
   D48        2.63354   0.00068   0.00000  -0.00249  -0.00255   2.63099
   D49       -0.45184   0.00083   0.00000   0.01729   0.01699  -0.43486
   D50        1.66181  -0.00027   0.00000  -0.00454  -0.00447   1.65734
   D51       -2.55750  -0.00061   0.00000  -0.01568  -0.01545  -2.57295
   D52       -1.01759   0.00059   0.00000   0.06091   0.06087  -0.95672
   D53       -3.10033   0.00010   0.00000   0.05444   0.05442  -3.04591
   D54        1.10186   0.00115   0.00000   0.07856   0.07852   1.18038
   D55       -3.09794   0.00020   0.00000   0.06458   0.06463  -3.03332
   D56        1.10250  -0.00028   0.00000   0.05811   0.05818   1.16068
   D57       -0.97849   0.00076   0.00000   0.08224   0.08228  -0.89621
   D58        1.10194   0.00070   0.00000   0.08159   0.08168   1.18362
   D59       -0.98080   0.00021   0.00000   0.07512   0.07523  -0.90557
   D60       -3.06180   0.00126   0.00000   0.09924   0.09933  -2.96246
   D61       -1.25183   0.00044   0.00000   0.01152   0.01121  -1.24061
   D62        2.92389  -0.00057   0.00000  -0.01702  -0.01673   2.90716
   D63        0.86091  -0.00003   0.00000  -0.00404  -0.00402   0.85689
   D64        2.88674   0.00046   0.00000   0.00727   0.00728   2.89402
   D65        0.81168  -0.00133   0.00000  -0.01054  -0.01048   0.80120
   D66       -1.33551   0.00098   0.00000   0.00992   0.00986  -1.32564
         Item               Value     Threshold  Converged?
 Maximum Force            0.005016     0.000450     NO 
 RMS     Force            0.001482     0.000300     NO 
 Maximum Displacement     0.267723     0.001800     NO 
 RMS     Displacement     0.062537     0.001200     NO 
 Predicted change in Energy=-1.230618D-03
 GradGradGradGradGradGradGradGradGradGradGradGradGradGradGradGradGradGrad

                          Input orientation:                          
 ---------------------------------------------------------------------
 Center     Atomic      Atomic             Coordinates (Angstroms)
 Number     Number       Type             X           Y           Z
 ---------------------------------------------------------------------
      1          6           0        7.191131    6.968207    2.500450
      2          1           0        6.494802    6.122624    2.578025
      3          8           0        7.643227    7.355714    3.768113
      4          1           0        8.298173    6.715368    4.069739
      5          6           0        7.954389    5.980565    0.485122
      6          1           0        7.647434    4.937143    0.654584
      7          8           0        8.310304    6.567754    1.737677
      8          6           0        6.458614    8.167892    1.861176
      9          1           0        5.399894    8.097622    2.127785
     10          8           0        6.977799    9.410229    2.306577
     11          1           0        7.390312    9.260869    3.168789
     12          6           0        6.595533    8.135920    0.309753
     13          1           0        5.679420    8.548711   -0.127930
     14          8           0        7.704727    8.893272   -0.125054
     15          1           0        7.870729    9.552902    0.565211
     16          6           0        6.765286    6.701895   -0.201538
     17          1           0        6.955435    6.728617   -1.277370
     18          8           0        5.522623    6.042620    0.047646
     19          1           0        5.500647    5.212377   -0.438572
     20          6           0        9.221658    5.952723   -0.361236
     21          1           0        9.466135    6.966905   -0.682602
     22          1           0       10.042313    5.565524    0.253211
     23          8           0        8.967895    5.091674   -1.469363
     24          1           0        9.648583    5.217650   -2.136089
 ---------------------------------------------------------------------
                    Distance matrix (angstroms):
                    1          2          3          4          5
     1  C    0.000000
     2  H    1.098137   0.000000
     3  O    1.400544   2.062935   0.000000
     4  H    1.937044   2.414271   0.964353   0.000000
     5  C    2.370558   2.555547   3.572939   3.675269   0.000000
     6  H    2.782203   2.536445   3.942534   3.904975   1.100758
     7  O    1.412351   2.049482   2.277838   2.336761   1.428412
     8  C    1.544181   2.167557   2.387331   3.220490   2.985844
     9  H    2.150113   2.302641   2.876394   3.752576   3.702123
    10  O    2.458977   3.333964   2.607664   3.480575   4.004251
    11  H    2.396382   3.316553   2.013149   2.848772   4.275587
    12  C    2.552927   3.034562   3.696841   4.365139   2.553977
    13  H    3.419305   3.724640   4.523155   5.276310   3.485211
    14  O    3.295895   4.055496   4.186241   4.763584   2.986387
    15  H    3.299644   4.208492   3.890755   4.529462   3.574214
    16  C    2.748273   2.852138   4.117814   4.538032   1.551059
    17  H    3.792741   3.929820   5.130615   5.513139   2.159600
    18  O    3.107552   2.711891   4.479180   4.932900   2.471583
    19  H    3.818183   3.304050   5.184663   5.514526   2.732063
    20  C    3.652875   4.012963   4.638034   4.589988   1.524162
    21  H    3.912475   4.491472   4.825249   4.900219   2.149842
    22  H    3.891895   4.277845   4.616810   4.350868   2.141371
    23  O    4.736843   4.853905   5.857626   5.810900   2.374306
    24  H    5.531817   5.743534   6.591841   6.525263   3.212954
                    6          7          8          9         10
     6  H    0.000000
     7  O    2.066732   0.000000
     8  C    3.647862   2.450398   0.000000
     9  H    4.148540   3.311067   1.094032   0.000000
    10  O    4.815183   3.190436   1.418216   2.060264   0.000000
    11  H    5.008188   3.185488   1.942295   2.529544   0.967411
    12  C    3.384904   2.727370   1.557780   2.176295   2.399436
    13  H    4.186745   3.785001   2.169956   2.317298   2.890472
    14  O    4.032626   3.040481   2.454400   3.319729   2.590077
    15  H    4.622021   3.237130   2.364709   3.265655   1.962151
    16  C    2.150693   2.483069   2.549114   3.039424   3.697415
    17  H    2.724094   3.309390   3.488383   3.986097   4.476184
    18  O    2.470886   3.301990   2.946481   2.926615   4.308259
    19  H    2.424754   3.803587   3.865437   3.862768   5.228745
    20  C    2.131074   2.369444   4.180969   5.040010   4.909835
    21  H    3.035733   2.711644   4.118053   5.070613   4.593130
    22  H    2.508268   2.491578   4.711769   5.610490   5.328163
    23  O    2.505722   3.591148   5.181900   5.891165   6.071912
    24  H    3.445451   4.315070   5.904062   6.672796   6.666939
                   11         12         13         14         15
    11  H    0.000000
    12  C    3.173526   0.000000
    13  H    3.781888   1.096006   0.000000
    14  O    3.329172   1.411719   2.054410   0.000000
    15  H    2.663588   1.923336   2.508123   0.969089   0.000000
    16  C    4.277629   1.531882   2.143655   2.385484   3.152483
    17  H    5.135148   2.151510   2.502433   2.564177   3.494203
    18  O    4.856637   2.366800   2.517122   3.594109   4.254827
    19  H    5.742313   3.210275   3.355530   4.301772   5.046288
    20  C    5.172884   3.480389   4.397845   3.317182   3.955326
    21  H    4.940093   3.254492   4.141134   2.669140   3.284773
    22  H    5.402710   4.300049   5.299011   4.084275   4.551077
    23  O    6.432993   4.249798   4.956270   4.225507   5.024521
    24  H    7.041954   4.880527   5.557240   4.618769   5.408529
                   16         17         18         19         20
    16  C    0.000000
    17  H    1.092834   0.000000
    18  O    1.428618   2.068625   0.000000
    19  H    1.968288   2.262514   0.962389   0.000000
    20  C    2.573038   2.564583   3.722651   3.794735   0.000000
    21  H    2.756127   2.591167   4.115684   4.343157   1.091609
    22  H    3.498148   3.636521   4.549448   4.607603   1.095875
    23  O    3.008600   2.601238   3.882720   3.619241   1.426095
    24  H    3.776091   3.205224   4.740550   4.481848   1.967917
                   21         22         23         24
    21  H    0.000000
    22  H    1.780897   0.000000
    23  O    2.093735   2.084747   0.000000
    24  H    2.281622   2.446383   0.961108   0.000000
 Symmetry turned off by external request.
 Stoichiometry    C6H12O6
 Framework group  C1[X(C6H12O6)]
 Deg. of freedom    66
 Full point group                 C1      NOp   1
 Rotational constants (GHZ):      1.3512615      0.7065368      0.6426623
 Standard basis: 6-311+G(2df,p) (5D, 7F)
 Integral buffers will be    131072 words long.
 Raffenetti 2 integral format.
 Two-electron integral symmetry is turned off.
   480 basis functions,   720 primitive gaussians,   540 cartesian basis functions
    48 alpha electrons       48 beta electrons
       nuclear repulsion energy       842.5490797524 Hartrees.
 NAtoms=   24 NActive=   24 NUniq=   24 SFac= 1.00D+00 NAtFMM=   60 NAOKFM=F Big=F
 One-electron integrals computed using PRISM.
 NBasis=   480 RedAO= T  NBF=   480
 NBsUse=   480 1.00D-06 NBFU=   480
 Initial guess read from the read-write file.
 B after Tr=     0.000000    0.000000    0.000000
         Rot=    1.000000    0.000000    0.000000    0.000000 Ang=   0.00 deg.
 Harris functional with IExCor=  402 diagonalized for initial guess.
 ExpMin= 4.38D-02 ExpMax= 8.59D+03 ExpMxC= 1.30D+03 IAcc=2 IRadAn=         4 AccDes= 0.00D+00
 HarFok:  IExCor=  402 AccDes= 0.00D+00 IRadAn=         4 IDoV= 1
 ScaDFX=  1.000000  1.000000  1.000000  1.000000
 FoFCou: FMM=F IPFlag=           0 FMFlag=      100000 FMFlg1=           0
         NFxFlg=           0 DoJE=T BraDBF=F KetDBF=T FulRan=T
         Omega=  0.000000  0.000000  1.000000  0.000000  0.000000 ICntrl=     500 IOpCl=  0
         NMat0=    1 NMatS0=    1 NMatT0=    0 NMatD0=    1 NMtDS0=    0 NMtDT0=    0
         I1Cent=           4 NGrid=           0.
 Symmetry not used in FoFCou.
 Requested convergence on RMS density matrix=1.00D-08 within  64 cycles.
 Requested convergence on MAX density matrix=1.00D-06.
 Requested convergence on             energy=1.00D-06.
 No special actions if energy rises.
 SCF Done:  E(RB3LYP) =  -687.419006531     A.U. after   11 cycles
             Convg  =    0.1994D-08             -V/T =  2.0037
 QCSCF skips out because SCF is already converged.
 Calling FoFJK, ICntrl=      2127 FMM=F ISym2X=0 I1Cent= 0 IOpClX= 0 NMat=1 NMatS=1 NMatT=0.
 -------------------------------------------------------------------
 Center     Atomic                   Forces (Hartrees/Bohr)
 Number     Number              X              Y              Z
 -------------------------------------------------------------------
      1        6          -0.000709347   -0.000362806   -0.001877674
      2        1          -0.000391863   -0.000385207   -0.000064045
      3        8           0.000332451    0.000565420   -0.001005908
      4        1          -0.000190180   -0.000086438   -0.000182210
      5        6          -0.001253512   -0.001814312   -0.000577519
      6        1          -0.000320465    0.000364260    0.000135882
      7        8           0.001185392    0.001050966   -0.000029174
      8        6           0.000019985   -0.001299523    0.000123914
      9        1          -0.000011706   -0.000017026   -0.000164554
     10        8          -0.000029524    0.000772443    0.000530255
     11        1           0.000389641   -0.000125648   -0.000257303
     12        6          -0.001417514   -0.000227225    0.000154567
     13        1          -0.000459533   -0.001206741    0.000402836
     14        8           0.001842192   -0.001509070   -0.000529517
     15        1           0.000319838   -0.000367959    0.000298699
     16        6           0.001507771    0.000628573   -0.000504641
     17        1           0.000697915    0.001258796    0.000080731
     18        8          -0.000723657    0.000057562    0.001561950
     19        1           0.000517078    0.000233829   -0.000007666
     20        6          -0.000073736    0.000944250    0.002029702
     21        1           0.000321618    0.000709738   -0.000688512
     22        1          -0.000256368    0.000445936    0.000121083
     23        8          -0.001402540   -0.000019901    0.000145659
     24        1           0.000106065    0.000390082    0.000303445
 -------------------------------------------------------------------
 Cartesian Forces:  Max     0.002029702 RMS     0.000780805

 GradGradGradGradGradGradGradGradGradGradGradGradGradGradGradGradGradGrad
 Berny optimization.
 Using GEDIIS/GDIIS optimizer.
 Internal  Forces:  Max     0.003142955 RMS     0.000715941
 Search for a local minimum.
 Step number   2 out of a maximum of  142
 All quantities printed in internal units (Hartrees-Bohrs-Radians)
 Mixed Optimization -- En-DIIS/RFO-DIIS
 Update second derivatives using D2CorX and points    1    2
 DE= -5.54D-04 DEPred=-1.23D-03 R= 4.50D-01
 Trust test= 4.50D-01 RLast= 3.42D-01 DXMaxT set to 3.00D-01
 ITU=  0  0
 Use linear search instead of GDIIS.
     Eigenvalues ---    0.00321   0.00515   0.00649   0.01396   0.01419
     Eigenvalues ---    0.01485   0.01544   0.01614   0.01746   0.03165
     Eigenvalues ---    0.03471   0.04430   0.04634   0.04684   0.04856
     Eigenvalues ---    0.05184   0.05519   0.05682   0.06160   0.06193
     Eigenvalues ---    0.06697   0.06834   0.07097   0.07227   0.07866
     Eigenvalues ---    0.09498   0.10802   0.10870   0.13139   0.13504
     Eigenvalues ---    0.15785   0.15946   0.16000   0.16000   0.16000
     Eigenvalues ---    0.16118   0.16802   0.18161   0.18581   0.19741
     Eigenvalues ---    0.20950   0.22427   0.25988   0.27021   0.28042
     Eigenvalues ---    0.29767   0.31453   0.33141   0.33622   0.33807
     Eigenvalues ---    0.33960   0.34039   0.34101   0.34397   0.39889
     Eigenvalues ---    0.41132   0.41824   0.42308   0.43259   0.44217
     Eigenvalues ---    0.46365   0.53443   0.53698   0.54321   0.54719
     Eigenvalues ---    0.55060
 RFO step:  Lambda=-1.37191552D-04 EMin= 3.21361998D-03
 Quartic linear search produced a step of -0.32898.
 Iteration  1 RMS(Cart)=  0.02431949 RMS(Int)=  0.00015752
 Iteration  2 RMS(Cart)=  0.00027903 RMS(Int)=  0.00003721
 Iteration  3 RMS(Cart)=  0.00000004 RMS(Int)=  0.00003721
 Variable       Old X    -DE/DX   Delta X   Delta X   Delta X     New X
                                 (Linear)    (Quad)   (Total)
    R1        2.07518   0.00054   0.00167  -0.00096   0.00072   2.07589
    R2        2.64664  -0.00089  -0.00293   0.00227  -0.00067   2.64598
    R3        2.66896  -0.00096  -0.00255   0.00152  -0.00105   2.66791
    R4        2.91808  -0.00159  -0.00333   0.00020  -0.00317   2.91491
    R5        1.82236  -0.00013   0.00060  -0.00090  -0.00029   1.82207
    R6        2.08013  -0.00023   0.00171  -0.00255  -0.00084   2.07929
    R7        2.69931  -0.00139  -0.00356   0.00270  -0.00088   2.69843
    R8        2.93108  -0.00211  -0.00441   0.00091  -0.00348   2.92760
    R9        2.88025  -0.00219  -0.00323  -0.00091  -0.00414   2.87611
   R10        2.06742  -0.00003   0.00134  -0.00168  -0.00034   2.06708
   R11        2.68004   0.00079  -0.00316   0.00505   0.00189   2.68193
   R12        2.94378  -0.00116  -0.00370   0.00118  -0.00251   2.94127
   R13        1.82814  -0.00005   0.00058  -0.00077  -0.00019   1.82796
   R14        2.07115  -0.00023   0.00108  -0.00176  -0.00069   2.07046
   R15        2.66776   0.00076  -0.00249   0.00418   0.00169   2.66945
   R16        2.89484  -0.00314  -0.00429  -0.00247  -0.00671   2.88812
   R17        1.83131   0.00001   0.00035  -0.00041  -0.00006   1.83125
   R18        2.06516   0.00007   0.00224  -0.00258  -0.00034   2.06482
   R19        2.69970   0.00032  -0.00390   0.00524   0.00134   2.70104
   R20        1.81865  -0.00021   0.00064  -0.00103  -0.00039   1.81826
   R21        2.06284   0.00093   0.00210  -0.00072   0.00138   2.06422
   R22        2.07090  -0.00028   0.00088  -0.00162  -0.00074   2.07016
   R23        2.69493  -0.00034  -0.00341   0.00359   0.00019   2.69512
   R24        1.81623  -0.00009   0.00048  -0.00069  -0.00021   1.81602
    A1        1.93242   0.00044   0.00302  -0.00017   0.00286   1.93528
    A2        1.89895   0.00045   0.00141   0.00155   0.00294   1.90189
    A3        1.90358   0.00022   0.00318  -0.00117   0.00199   1.90557
    A4        1.88756  -0.00063  -0.00183  -0.00167  -0.00351   1.88405
    A5        1.88902  -0.00061  -0.00237  -0.00082  -0.00319   1.88583
    A6        1.95260   0.00013  -0.00346   0.00227  -0.00111   1.95149
    A7        1.89506  -0.00040  -0.00185   0.00058  -0.00127   1.89379
    A8        1.90091   0.00008   0.00161   0.00190   0.00349   1.90441
    A9        1.87046  -0.00001   0.00289  -0.00038   0.00250   1.87297
   A10        1.87552   0.00104   0.00476   0.00329   0.00806   1.88358
   A11        1.96931   0.00063  -0.00165  -0.00034  -0.00188   1.96743
   A12        1.86217  -0.00069  -0.00135  -0.00528  -0.00661   1.85556
   A13        1.98241  -0.00098  -0.00578   0.00115  -0.00470   1.97771
   A14        1.97435  -0.00112  -0.00628   0.00242  -0.00376   1.97060
   A15        1.88417   0.00055   0.00303  -0.00165   0.00135   1.88552
   A16        1.95723  -0.00025  -0.00266   0.00298   0.00033   1.95755
   A17        1.93335  -0.00077  -0.00399  -0.00118  -0.00504   1.92831
   A18        1.91134  -0.00007   0.00371  -0.00238   0.00134   1.91268
   A19        1.90333  -0.00008   0.00206  -0.00087   0.00113   1.90446
   A20        1.87400   0.00060  -0.00206   0.00298   0.00095   1.87495
   A21        1.87629  -0.00006   0.00108  -0.00157  -0.00048   1.87580
   A22        1.89285  -0.00049   0.00234  -0.00101   0.00127   1.89412
   A23        1.94420   0.00063   0.00022   0.00016   0.00041   1.94461
   A24        1.94052   0.00058  -0.00580   0.00222  -0.00343   1.93709
   A25        1.90889   0.00126   0.00595   0.00719   0.01316   1.92205
   A26        1.88800  -0.00011   0.00293  -0.00267   0.00021   1.88821
   A27        1.88845  -0.00186  -0.00552  -0.00582  -0.01134   1.87711
   A28        1.85498  -0.00008   0.00166  -0.00234  -0.00068   1.85429
   A29        1.95254  -0.00033  -0.00604   0.00032  -0.00558   1.94697
   A30        1.88999   0.00023   0.00058   0.00071   0.00120   1.89119
   A31        1.95521  -0.00022  -0.00084   0.00073  -0.00009   1.95513
   A32        1.90177  -0.00051   0.00140  -0.00668  -0.00533   1.89644
   A33        1.85187   0.00011  -0.00200   0.00209   0.00010   1.85198
   A34        1.91170   0.00073   0.00706   0.00265   0.00974   1.92144
   A35        1.90694  -0.00094  -0.00090  -0.00287  -0.00376   1.90318
   A36        1.90998   0.00082  -0.00276   0.00550   0.00274   1.91272
   A37        1.89415   0.00021   0.00062   0.00010   0.00070   1.89485
   A38        1.86979  -0.00193  -0.00519   0.00002  -0.00516   1.86463
   A39        1.90246  -0.00024   0.00286  -0.00287  -0.00001   1.90245
   A40        1.95201   0.00013   0.00141  -0.00386  -0.00240   1.94961
   A41        1.93435   0.00100   0.00276   0.00140   0.00417   1.93852
   A42        1.91120  -0.00089  -0.00011  -0.00359  -0.00371   1.90750
    D1        1.32530   0.00003   0.00079  -0.00298  -0.00219   1.32311
    D2       -0.75371  -0.00039  -0.00157  -0.00374  -0.00529  -0.75899
    D3       -2.87231   0.00018   0.00499  -0.00502  -0.00006  -2.87237
    D4        0.90295   0.00007  -0.00855   0.00650  -0.00204   0.90092
    D5        3.00303   0.00050  -0.00518   0.00622   0.00105   3.00408
    D6       -1.20136  -0.00059  -0.01126   0.00550  -0.00578  -1.20715
    D7        0.51832  -0.00005   0.00767  -0.00710   0.00057   0.51888
    D8        2.62534   0.00008   0.01266  -0.00931   0.00334   2.62868
    D9       -1.56449   0.00015   0.00565  -0.00434   0.00130  -1.56319
   D10       -1.58532  -0.00034   0.00357  -0.00572  -0.00215  -1.58747
   D11        0.52170  -0.00021   0.00856  -0.00794   0.00062   0.52233
   D12        2.61506  -0.00014   0.00155  -0.00296  -0.00141   2.61364
   D13        2.61994   0.00075   0.00933  -0.00450   0.00487   2.62481
   D14       -1.55622   0.00088   0.01432  -0.00671   0.00764  -1.54858
   D15        0.53713   0.00095   0.00731  -0.00174   0.00561   0.54274
   D16       -1.38275  -0.00011  -0.00570  -0.00711  -0.01277  -1.39552
   D17        0.69196   0.00032  -0.00203  -0.00652  -0.00848   0.68349
   D18        2.88085  -0.00101  -0.01136  -0.00914  -0.02044   2.86041
   D19        2.47181   0.00015   0.01849   0.00542   0.02394   2.49574
   D20       -1.71528  -0.00054   0.01692  -0.00221   0.01472  -1.70056
   D21        0.39483   0.00038   0.02562   0.00203   0.02767   0.42249
   D22        0.37948  -0.00032   0.01556   0.00351   0.01908   0.39855
   D23        2.47557  -0.00101   0.01399  -0.00411   0.00986   2.48544
   D24       -1.69750  -0.00009   0.02269   0.00013   0.02280  -1.67470
   D25       -1.74275   0.00086   0.02286   0.00992   0.03281  -1.70993
   D26        0.35335   0.00017   0.02129   0.00230   0.02360   0.37695
   D27        2.46346   0.00110   0.02999   0.00654   0.03654   2.50000
   D28        2.98538  -0.00032   0.00357  -0.00433  -0.00076   2.98462
   D29       -1.22362  -0.00001   0.00578  -0.00458   0.00123  -1.22240
   D30        0.86586   0.00021   0.00649  -0.00286   0.00366   0.86952
   D31       -1.26126  -0.00006   0.00712  -0.00316   0.00391  -1.25735
   D32        0.81292   0.00024   0.00934  -0.00340   0.00590   0.81882
   D33        2.90240   0.00047   0.01004  -0.00168   0.00833   2.91074
   D34        0.91966  -0.00043   0.00030  -0.00674  -0.00643   0.91323
   D35        2.99384  -0.00012   0.00251  -0.00698  -0.00444   2.98940
   D36       -1.19986   0.00010   0.00322  -0.00526  -0.00201  -1.20187
   D37       -0.42566  -0.00012  -0.00745   0.01737   0.00995  -0.41571
   D38        1.66559   0.00037  -0.00286   0.01561   0.01276   1.67834
   D39       -2.55328   0.00058   0.00045   0.01498   0.01539  -2.53789
   D40        2.56223  -0.00011   0.00937  -0.00250   0.00690   2.56913
   D41       -1.61930   0.00152   0.01848   0.00585   0.02434  -1.59496
   D42        0.48855  -0.00002   0.00779   0.00008   0.00790   0.49644
   D43        0.49099  -0.00028   0.00680   0.00077   0.00758   0.49857
   D44        2.59265   0.00135   0.01591   0.00912   0.02501   2.61766
   D45       -1.58269  -0.00018   0.00522   0.00335   0.00857  -1.57412
   D46       -1.57851  -0.00050   0.00242   0.00240   0.00482  -1.57369
   D47        0.52315   0.00113   0.01153   0.01074   0.02226   0.54541
   D48        2.63099  -0.00040   0.00084   0.00498   0.00582   2.63681
   D49       -0.43486   0.00009  -0.00559   0.01200   0.00647  -0.42838
   D50        1.65734   0.00070   0.00147   0.01555   0.01704   1.67437
   D51       -2.57295   0.00021   0.00508   0.01304   0.01804  -2.55491
   D52       -0.95672  -0.00018  -0.02002  -0.00112  -0.02114  -0.97787
   D53       -3.04591   0.00008  -0.01790   0.00219  -0.01573  -3.06164
   D54        1.18038  -0.00057  -0.02583   0.00134  -0.02449   1.15589
   D55       -3.03332   0.00015  -0.02126   0.00046  -0.02080  -3.05412
   D56        1.16068   0.00041  -0.01914   0.00378  -0.01538   1.14530
   D57       -0.89621  -0.00025  -0.02707   0.00293  -0.02415  -0.92036
   D58        1.18362  -0.00026  -0.02687  -0.00340  -0.03028   1.15334
   D59       -0.90557   0.00000  -0.02475  -0.00009  -0.02487  -0.93044
   D60       -2.96246  -0.00066  -0.03268  -0.00094  -0.03363  -2.99609
   D61       -1.24061  -0.00031  -0.00369   0.00118  -0.00244  -1.24306
   D62        2.90716   0.00015   0.00550  -0.00103   0.00441   2.91157
   D63        0.85689   0.00033   0.00132   0.00433   0.00565   0.86253
   D64        2.89402   0.00001  -0.00240  -0.00024  -0.00263   2.89140
   D65        0.80120   0.00017   0.00345  -0.00473  -0.00130   0.79989
   D66       -1.32564  -0.00033  -0.00324   0.00066  -0.00256  -1.32821
         Item               Value     Threshold  Converged?
 Maximum Force            0.003143     0.000450     NO 
 RMS     Force            0.000716     0.000300     NO 
 Maximum Displacement     0.100208     0.001800     NO 
[...]
 0.00371873,-0.00051815,-0.00140284,0.00095615,-0.00153005,-0.00042057,
 0.00109724,0.00037204,-0.00007824,-0.00043555,-0.10336485,0.03398298,-
 0.02594703,0.00085809,-0.00503853,0.00334169,-0.00516009,0.00189878,-0
 .00563467,0.00268548,0.00259251,0.00003858,-0.00073892,0.00014267,0.00
 060569,-0.00058041,-0.00009676,0.00091106,-0.00008688,0.00000039,0.000
 04788,-0.07309833,0.02736675,0.00637976,-0.00499103,0.02766555,0.00899
 184,-0.00828079,-0.03696660,-0.00929231,-0.00336832,-0.00463888,0.0022
 2810,0.43903172,0.00132526,0.00447655,-0.00001250,-0.00019670,-0.00092
 146,0.00065009,0.00045482,-0.00170899,0.00011564,-0.00008468,0.0001988
 6,0.00038783,0.02388633,-0.10332158,0.01635211,0.02421815,-0.01833436,
 0.01463501,-0.01138747,0.00738131,-0.00558252,0.00046487,-0.00065654,-
 0.01204466,-0.00069320,0.00008064,0.00115838,0.00133718,0.00101889,0.0
 0362704,-0.00024827,0.00081334,-0.00004379,0.03393448,-0.15752542,-0.0
 3381833,0.00427912,-0.01697217,-0.00775422,-0.01247641,-0.01855769,-0.
 00117552,0.00065379,-0.00097021,0.00089564,0.00259639,0.48197616,-0.00
 657093,-0.00003437,-0.00152338,0.00071574,0.00073769,-0.00114847,0.001
 84790,0.00016008,0.00094225,-0.00009293,0.00011322,0.00058559,-0.01308
 276,0.01403627,-0.09598936,-0.00535935,0.00596040,0.00123480,-0.029319
 96,0.00785430,-0.03169959,0.00280707,-0.03271649,-0.00936094,0.0009891
 3,0.00061570,-0.00126608,-0.00136547,-0.00108726,-0.00713623,0.0004244
 4,-0.00178414,-0.00052094,0.00680973,-0.03756158,-0.09842257,-0.003172
 64,0.01338670,0.00556110,0.00350184,0.01344678,0.00544497,0.00155172,0
 .00141106,-0.00249645,-0.03213213,0.02208324,0.60666420,-0.00169157,0.
 00050296,0.00127970,0.00008276,0.00007893,-0.00021685,0.00039407,-0.00
 014721,-0.00031444,-0.00005395,-0.00001643,0.00021535,0.00359098,0.000
 02455,-0.02167400,-0.00046920,0.00143693,0.00008780,-0.00311445,0.0013
 4762,-0.00501843,-0.00003452,0.00029703,-0.00007946,0.00011978,-0.0001
 1799,0.00000108,0.00012714,-0.00000101,0.00000438,-0.00002442,0.000090
 73,-0.00002261,0.00022843,0.00181499,0.00499221,0.00020429,-0.00025140
 ,0.00031868,0.00003400,-0.00053300,-0.00089663,-0.00002524,0.00004668,
 0.00014595,-0.05055301,0.00036212,0.02976917,0.07067003,0.00082366,-0.
 00118626,-0.00024634,-0.00015245,0.00012931,-0.00008740,-0.00023156,0.
 00042649,0.00012802,0.00004327,-0.00000589,-0.00014282,-0.00074826,0.0
 0257425,0.01541039,-0.00013248,-0.00072888,-0.00045555,0.00219661,-0.0
 0061285,0.00234787,-0.00015167,-0.00490681,0.00186252,0.00024336,0.000
 14906,-0.00039203,-0.00093082,-0.00082091,-0.00244728,0.00023904,-0.00
 063968,-0.00013625,0.00464158,-0.00152582,-0.03389295,0.00006456,0.001
 46714,0.00063829,0.00115554,0.00237024,0.00131852,0.00019588,0.0003409
 8,-0.00026897,0.00320973,-0.05130514,0.00029374,0.00338701,0.05417529,
 -0.00038593,0.00020986,0.00119843,0.00003827,-0.00001276,0.00000773,0.
 00000129,-0.00015802,-0.00027829,0.00001356,-0.00001050,0.00013083,-0.
 00007589,-0.00112709,-0.01395668,-0.00030583,0.00062970,-0.00012381,-0
 .00161376,0.00138474,-0.00170037,0.00054913,-0.00072625,0.00136705,0.0
 0000360,-0.00002060,-0.00017543,-0.00035821,-0.00030393,-0.00019666,0.
 00003748,-0.00006808,0.00004680,0.00135833,-0.00121902,-0.01120548,0.0
 0027453,-0.00017207,0.00074339,-0.00023746,0.00061292,0.00157826,-0.00
 011555,-0.00001248,-0.00013551,0.03249078,0.00228863,-0.30140314,-0.04
 128743,-0.00399435,0.32279593,-0.00323739,0.00088979,0.00195465,-0.000
 08621,0.00000590,-0.00057726,0.00040804,-0.00047551,-0.00142017,-0.000
 21416,-0.00008719,0.00053835,-0.04293039,-0.01698279,0.01141754,0.0028
 9566,-0.00217802,0.00094752,-0.00027512,-0.00032515,-0.00537950,-0.000
 01547,-0.00021154,0.00004102,0.00035564,-0.00038280,-0.00068607,0.0006
 0307,-0.00020504,-0.00040175,-0.00002932,0.00024513,0.00006567,-0.0095
 7813,-0.00816793,0.00003009,0.00170110,-0.00015305,0.00058409,0.002003
 52,-0.00129116,-0.00185575,-0.00005814,0.00017901,0.00071906,-0.166507
 20,-0.03093167,0.04786109,-0.02002332,-0.01381831,0.00702411,0.2739132
 3,-0.00109501,-0.00186160,0.00051424,0.00016841,0.00040281,-0.00044295
 ,-0.00001715,0.00068354,-0.00031224,-0.00010912,-0.00009439,0.00000846
 ,0.00640506,0.00124484,-0.00240031,0.00085438,0.00467038,-0.00103065,0
 .00057499,0.00223586,-0.00106713,0.00078212,0.00091201,0.00031234,-0.0
 0048889,-0.00019432,-0.00061810,-0.00019701,0.00023513,-0.00076657,0.0
 0017876,-0.00014646,0.00026286,-0.03965313,-0.01881075,0.01020014,-0.0
 0106865,0.00235803,0.00088570,-0.00308314,-0.01188410,-0.00606999,-0.0
 0114795,-0.00143967,0.00237865,-0.06490089,-0.10874394,0.01064530,-0.0
 0975000,-0.00266455,0.00410736,0.09862873,0.52161984,0.00316804,0.0030
 7249,-0.00233976,-0.00154522,-0.00202197,-0.00021409,-0.00156114,-0.00
 149890,-0.00092677,0.00025430,-0.00007805,0.00008423,-0.01078990,-0.00
 477866,0.00777261,0.00058112,-0.00200555,0.00107407,0.00061650,0.00019
 666,0.00237995,0.00030621,0.00140937,-0.00080360,-0.00060163,-0.000071
 08,0.00006015,-0.00010671,-0.00046784,0.00097809,-0.00014365,0.0004189
 3,0.00003515,-0.01102085,-0.00400418,0.00515657,0.00011901,-0.00023648
 ,0.00013418,-0.00082516,-0.00391622,0.00026055,-0.00042151,-0.00057855
 ,0.00028890,0.02211567,-0.01051038,-0.08276117,0.03373738,0.01927543,0
 .00023749,-0.05603095,0.21821810,0.20790620,0.00049135,-0.00045035,-0.
 00059745,-0.00006557,0.00004767,-0.00012537,-0.00005253,0.00017474,0.0
 0039962,0.00001275,0.00001341,-0.00014565,-0.00021361,-0.00346026,-0.0
 0058312,-0.00069217,0.00161047,-0.00074813,0.00014349,0.00141698,0.000
 92708,-0.00038698,0.00003676,0.00017390,0.00016349,0.00001495,-0.00021
 211,0.00016475,0.00029363,0.00004721,0.00004296,-0.00005590,-0.0000347
 4,-0.00542935,0.00029050,0.00190472,0.00022311,-0.00008066,0.00018616,
 -0.00034057,-0.00194693,-0.00066385,-0.00007806,-0.00039686,0.00045904
 ,-0.00560660,-0.03667851,-0.01898730,0.00124595,0.00039812,0.00075920,
 -0.03405640,0.01134331,0.02407340,0.04389109,0.00015634,-0.00009206,-0
 .00021544,-0.00007494,0.00012791,-0.00014300,0.00011280,0.00007458,0.0
 0023353,0.00001083,0.00003857,-0.00004082,0.00102193,0.00254713,-0.000
 65351,-0.00004954,-0.00014546,0.00004914,0.00005075,-0.00047011,0.0004
 4758,0.00012568,0.00022389,-0.00015868,-0.00002475,-0.00006066,-0.0000
 0252,0.00009714,0.00011682,0.00016424,-0.00002032,0.00002247,-0.000016
 14,-0.00438145,0.00005049,0.00252262,0.00010757,0.00038541,0.00008242,
 -0.00001000,-0.00106099,-0.00098828,-0.00025550,-0.00027580,0.00031144
 ,0.00200203,-0.01810256,-0.01018936,0.00169368,0.00149962,0.00029689,-
 0.02785317,-0.38941765,-0.21198450,0.02705961,0.40499608,0.00024309,-0
 .00046868,-0.00036558,-0.00008261,-0.00016696,-0.00018831,-0.00006877,
 0.00013090,0.00014303,-0.00003170,-0.00004374,-0.00007536,0.00038617,-
 0.00162457,-0.00052910,-0.00081147,0.00092452,-0.00027543,0.00011999,0
 .00074384,0.00053306,0.00041957,0.00032044,0.00011530,-0.00020933,0.00
 006770,0.00014382,-0.00023243,0.00011106,-0.00004126,0.00001612,-0.000
 09916,0.00001906,0.00172777,0.00100736,-0.00023333,0.00015359,0.000010
 38,-0.00010521,0.00050466,0.00098746,0.00047141,0.00020283,0.00018306,
 -0.00001883,0.00363139,0.01126383,0.00345116,0.00030827,0.00135463,0.0
 0099863,0.00040691,-0.23502851,-0.13883852,-0.00669236,0.21985328,0.13
 478869,-0.00359915,0.00016761,-0.00150070,0.00032296,0.00013902,-0.000
 05792,0.00077435,-0.00122436,-0.00290464,0.00028635,-0.00017104,0.0004
 2588,-0.16903675,-0.00945863,0.05206704,-0.01017784,-0.00117082,0.0064
 7511,0.01270435,-0.00144330,-0.00757000,-0.00026171,0.00030938,0.00002
 263,0.00006076,-0.00009761,0.00004104,-0.00012184,-0.00050689,0.000009
 64,0.00002134,0.00021332,-0.00002456,0.00087020,0.00111769,-0.00065104
 ,-0.00038114,-0.00022437,-0.00005404,-0.00145167,0.00162976,0.00110815
 ,-0.00013075,0.00015628,-0.00017796,-0.02514980,-0.00083450,0.01083393
 ,-0.00049260,-0.00000660,0.00040439,-0.00324658,0.00197102,-0.00171250
 ,-0.00021508,0.00015968,0.00017982,0.53766899,-0.00133164,-0.00030047,
 -0.00199649,0.00042983,0.00002401,-0.00014150,0.00059701,-0.00029909,-
 0.00080981,-0.00001464,-0.00005133,0.00002459,-0.00551042,-0.07747474,
 0.01322640,-0.02889157,-0.00230896,0.01831795,0.01410719,-0.00389541,-
 0.01825759,0.00014320,0.00023974,-0.00001169,-0.00003635,-0.00006010,0
 .00015614,-0.00032846,-0.00002568,0.00033338,0.00001782,0.00002772,-0.
 00016896,0.00225032,0.00078381,-0.00028010,-0.00028550,-0.00029558,0.0
 0011537,-0.00221824,-0.00025507,0.00022968,0.00040121,-0.00049663,-0.0
 0015541,0.01222157,0.00022802,-0.00791748,0.00010183,0.00143655,-0.000
 58323,0.00140032,0.00036751,-0.00039947,0.00018407,-0.00011489,0.00072
 871,0.00185106,0.56506328,-0.00068742,-0.00082624,-0.00386012,-0.00011
 914,0.00025172,0.00025362,0.00022424,-0.00022083,-0.00023452,0.0002628
 3,-0.00003328,-0.00028782,0.04938363,0.01782805,-0.09204750,0.00924292
 ,0.00080570,-0.00373187,0.02183632,-0.00815522,-0.03162485,-0.00005616
 ,-0.00056658,-0.00024472,-0.00006612,0.00007614,-0.00006362,-0.0000286
 4,0.00038543,0.00003916,0.00009559,-0.00017139,-0.00008191,-0.00080774
 ,-0.00050748,-0.00132940,-0.00011515,0.00070097,0.00004402,0.00092914,
 0.00045299,-0.00019513,-0.00003173,-0.00007377,0.00004366,-0.00357597,
 -0.00329670,0.01479888,-0.00227869,0.00034142,-0.00131901,-0.00774478,
 0.00037148,-0.00236164,0.00000419,0.00046742,0.00092677,0.02569437,-0.
 06815167,0.50154367,0.00012815,-0.00017470,0.00006075,0.00015232,0.000
 01719,-0.00009172,-0.00005551,0.00020612,0.00007852,-0.00002309,0.0000
 0444,-0.00002012,-0.00817087,-0.02826669,0.01076166,-0.00409368,-0.000
 09786,0.00323351,0.00087253,0.00090144,-0.00116801,0.00006501,-0.00003
 480,0.00012267,0.00001831,0.00001161,-0.00009001,0.00002977,0.00006684
 ,-0.00029752,0.00006710,-0.00003787,0.00004529,-0.00151560,-0.00042088
 ,0.00043140,0.00019620,0.00011148,0.00000555,0.00053741,-0.00026750,-0
 .00060413,0.00038394,0.00014419,0.00021629,0.00103487,-0.00108415,0.00
 044476,-0.00019883,0.00004314,-0.00055308,0.00039393,0.00078032,-0.000
 57472,0.00023903,-0.00014202,0.00017924,-0.06250883,-0.04122781,0.0131
 7400,0.06495621,0.00009086,0.00013712,0.00003736,0.00001852,-0.0000823
 0,-0.00005705,0.00000319,0.00002059,0.00006555,-0.00001258,-0.00001096
 ,0.00000250,-0.00067897,0.00065301,0.00067777,0.00062881,0.00086658,-0
 .00087737,-0.00016733,0.00086677,0.00091318,-0.00006955,-0.00009482,-0
 .00005931,0.00000068,0.00000926,0.00002713,0.00003165,0.00002659,0.000
 02074,-0.00001661,-0.00000288,-0.00000282,0.00000795,0.00024239,-0.000
 07760,0.00003429,0.00003641,-0.00001218,0.00111147,-0.00196856,-0.0003
 1622,0.00008703,-0.00023190,-0.00011582,0.00017938,0.00072258,0.000500
 74,-0.00028235,0.00006270,-0.00019165,0.00005697,-0.00015963,-0.000070
 45,0.00002892,-0.00003278,-0.00002050,-0.04678360,-0.26837181,0.079220
 21,0.05314091,0.29553889,-0.00001616,-0.00000683,0.00016638,-0.0001771
 1,-0.00005657,0.00008538,-0.00003813,-0.00018505,-0.00015147,0.0000280
 3,0.00004718,0.00003555,0.00456815,0.01872692,-0.00518715,0.00303132,-
 0.00083738,-0.00198830,-0.00042022,-0.00043119,0.00104589,0.00008124,0
 .00010343,-0.00002326,-0.00000290,-0.00002607,0.00004226,-0.00013124,-
 0.00016956,0.00007553,0.00002364,0.00004193,-0.00004836,0.00100214,0.0
 0041322,-0.00010052,-0.00014947,-0.00018382,-0.00002504,-0.00126804,0.
 00035040,0.00022166,0.00019485,-0.00019817,-0.00013378,-0.00122612,-0.
 00019409,0.00036259,0.00012176,-0.00039899,0.00026140,0.00004444,-0.00
 014504,0.00016841,-0.00012191,-0.00001056,-0.00019502,0.01725284,0.083
 42093,-0.08102855,-0.01641922,-0.07778767,0.08655110,-0.00015403,0.000
 04336,0.00029323,0.00016992,0.00004510,-0.00013262,0.00014258,-0.00001
 473,0.00014189,-0.00011647,0.00003791,0.00010144,-0.02572826,0.0138586
 0,-0.01492981,0.00113025,-0.00045900,-0.00046299,0.00261425,-0.0010303
 7,-0.00104635,0.00011971,-0.00008699,-0.00041160,0.00005753,-0.0000824
 6,0.00003519,0.00013698,0.00003642,0.00024073,-0.00006535,0.00008924,-
 0.00001888,-0.00067382,-0.00054695,-0.00044530,-0.00005211,0.00025165,
 0.00010052,0.00051580,0.00029391,0.00010933,-0.00006603,0.00005153,-0.
 00014062,-0.00052767,-0.00156146,0.00441322,0.00023070,-0.00035427,-0.
 00000678,-0.00240787,0.00007001,-0.00035262,0.00010273,0.00021407,0.00
 006047,-0.19161656,0.06991889,-0.09569406,0.00616209,-0.00178848,0.003
 80186,0.20792878,0.00002491,-0.00016252,-0.00010896,-0.00008100,0.0000
 2048,0.00005307,-0.00010828,-0.00001844,-0.00014466,0.00008656,0.00002
 622,-0.00003636,-0.00232067,0.00106585,0.00135721,0.00002287,0.0006938
 1,-0.00053999,0.00021617,-0.00018150,-0.00042480,0.00000931,0.00002670
 ,0.00009769,-0.00001178,0.00002404,-0.00003954,-0.00004011,-0.00000778
 ,-0.00018963,0.00006932,-0.00002457,0.00001684,-0.00055537,-0.00005689
 ,0.00015484,0.00010996,0.00004957,-0.00001309,0.00044853,-0.00069585,-
 0.00052184,0.00021719,-0.00000505,0.00014746,-0.00006135,0.00086077,0.
 00020465,-0.00020890,0.00003629,-0.00031561,0.00043043,-0.00013231,-0.
 00015241,-0.00003284,-0.00005203,-0.00006882,0.07359240,-0.09013315,0.
 05489573,0.02251542,-0.00855736,0.01582344,-0.07391968,0.09065005,0.00
 009330,0.00010357,0.00039569,-0.00002008,-0.00004014,-0.00001239,-0.00
 006738,0.00002474,0.00001967,0.00000214,-0.00001791,-0.00003802,0.0143
 6776,-0.00740844,0.00922692,-0.00077515,0.00004116,0.00081801,0.000283
 00,0.00034991,0.00137674,0.00004689,0.00000903,0.00013492,0.00000554,-
 0.00000559,0.00001396,-0.00003243,-0.00002824,0.00000870,-0.00001276,-
 0.00001112,0.00000239,0.00049550,0.00017966,0.00019799,0.00001326,-0.0
 0018782,-0.00001104,-0.00039663,0.00010945,0.00013768,-0.00006142,-0.0
 0003199,-0.00001927,0.00154271,0.00006281,-0.00307460,0.00018139,0.000
 06528,0.00008078,0.00138179,-0.00003054,0.00040511,0.00003699,-0.00007
 037,-0.00013945,-0.09663699,0.05537985,-0.11677494,-0.00876869,0.00564
 021,-0.00328525,0.11135459,-0.04943236,0.13782760,0.00157587,-0.000168
 45,0.00032089,-0.00015283,-0.00003622,-0.00001086,-0.00020299,0.000431
 81,0.00133873,-0.00015435,0.00007574,-0.00018698,0.00967778,0.01727612
 ,0.02129346,0.00186101,0.00055927,-0.00078947,-0.00599647,0.00229731,0
 .00741324,0.00002455,0.00004186,-0.00024918,-0.00002989,0.00002451,0.,
 0.00019665,0.00037114,0.00033946,-0.00007730,-0.00004246,-0.00001315,-
 0.00058644,-0.00109784,0.00112846,0.00007726,0.00002872,-0.00001949,0.
 00078516,0.00016650,-0.00010158,-0.00015482,-0.00002394,0.00001137,0.0
 0010865,0.00273734,-0.00236100,-0.00008063,-0.00010255,0.00184955,0.00
 023181,-0.00040669,0.00094806,0.00029929,0.00009171,-0.00045633,-0.088
 50564,-0.02139702,0.00165100,0.00081699,-0.00495751,-0.00920104,0.0021
 2387,-0.01997365,-0.02144714,0.34406047,-0.00098820,0.00058539,0.00112
 075,0.00021410,-0.00002828,-0.00012387,0.00002671,-0.00003716,-0.00061
 734,-0.00004207,-0.00008769,0.00022937,0.00166365,-0.00378724,-0.00746
 357,0.00106210,0.00128050,-0.00002170,0.00130889,0.00120267,0.00032209
 ,-0.00003824,-0.00003523,0.00014996,0.00009129,-0.00002893,-0.00009870
 ,0.00015739,-0.00020234,-0.00042816,-0.00001320,0.00005681,0.00013564,
 -0.00124129,-0.00027836,-0.00011151,0.00026496,0.00007991,-0.00000652,
 0.00174836,-0.00081804,-0.00030477,-0.00009200,0.00033706,0.00021386,-
 0.00138770,-0.00076786,0.00052075,-0.00004095,-0.00030177,-0.00069246,
 0.00127331,0.00094683,-0.00006903,0.00008963,-0.00031568,-0.00013914,-
 0.03961911,-0.12464796,-0.05085370,-0.00702786,-0.02007600,-0.03829671
 ,-0.00448203,0.00631613,-0.00490536,0.11485409,0.17763238,-0.00393876,
 0.00145207,0.00170343,0.00056149,0.00000300,-0.00028604,0.00069627,-0.
 00083124,-0.00206421,-0.00010376,-0.00012427,0.00064611,-0.00482941,-0
 .02191345,-0.02845137,-0.00196037,0.00045111,0.00110327,0.01029425,-0.
 00295180,-0.00691272,0.00003151,0.00043365,-0.00028044,0.00018139,-0.0
 0022539,0.00008304,0.00022005,-0.00059625,0.00008054,-0.00014246,0.000
 39568,0.00006611,-0.00047878,-0.00000916,0.00000544,0.00021111,-0.0002
 0544,0.00003900,0.00082837,-0.00069948,0.00043747,-0.00006213,0.000298
 80,-0.00014524,-0.00252228,0.00077368,-0.00255596,0.00045924,-0.000394
 25,0.00087212,0.00139419,-0.00005216,0.00138294,-0.00022671,0.00005385
 ,-0.00062659,-0.02737506,-0.08017382,-0.15906253,-0.00016618,-0.007303
 41,0.00008773,-0.00722512,-0.02138340,-0.02698202,-0.22747709,0.067004
 84,0.48365456,0.00013800,-0.00000693,0.00006571,0.00002017,-0.00000431
 ,-0.00000993,-0.00005401,-0.00000317,-0.00009113,0.00001139,-0.0000035
 7,0.00002260,-0.00054854,-0.00014483,0.00016322,0.00030618,0.00032904,
 -0.00024812,0.00008509,-0.00001273,-0.00058594,0.00002563,0.00003618,0
 .00004402,0.00000633,-0.00000558,-0.00001397,-0.00000933,-0.00003570,-
 0.00008987,0.00001780,0.00000198,0.00002596,-0.00018349,-0.00010092,0.
 00008648,0.00000916,0.00003209,0.00000951,0.00012773,-0.00011636,-0.00
 014215,0.00003817,0.00004785,0.00004126,0.00008816,-0.00007284,0.00047
 473,-0.00016639,-0.00001255,0.00013571,0.00015969,0.00016052,-0.000233
 12,0.00011692,-0.00009213,0.00004511,0.00418662,-0.00238266,-0.0112926
 2,0.00051257,-0.00066367,-0.00097870,-0.00002702,-0.00042944,-0.001586
 21,-0.26589799,-0.06778181,0.26163025,0.26103715,-0.00042711,0.0002386
 9,-0.00025332,0.00004916,-0.00001065,-0.00001553,0.00013344,-0.0001589
 1,-0.00017345,0.00000551,-0.00000115,0.00002952,-0.00232795,-0.0036647
 6,-0.00275645,-0.00002448,0.00049349,0.00003840,0.00165161,-0.00013127
 ,-0.00135599,-0.00002646,0.00001517,-0.00007443,0.00000033,-0.00002233
 ,0.00003579,-0.00001933,-0.00004320,0.00014032,-0.00001704,0.00004101,
 -0.00003976,0.00023593,0.00020869,-0.00014599,-0.00003587,-0.00002996,
 0.00001263,-0.00029184,-0.00001728,0.00026435,0.00001055,-0.00003978,-
 0.00010231,-0.00013405,0.00013081,-0.00067994,0.00016418,0.00003065,0.
 00007801,-0.00004624,-0.00012743,0.00025274,0.00009955,0.00005769,-0.0
 0002710,0.02023362,0.00056020,-0.02294039,0.00083902,0.00040612,0.0000
 0026,-0.00058428,0.00025754,0.00020419,-0.09074978,-0.03702515,0.06599
 684,0.07126151,0.03883181,-0.00023743,-0.00011376,-0.00026882,0.000017
 91,0.00000628,-0.00000097,0.00005925,-0.00003289,-0.00009026,0.0000320
 4,-0.00001791,-0.00001645,-0.00361938,-0.00308692,-0.00310613,-0.00054
 330,0.00000296,0.00029385,0.00144015,-0.00037542,-0.00079874,0.0000196
 5,0.00003236,-0.00007369,-0.00000904,-0.00000741,0.00001507,-0.0000206
 3,0.00006197,0.00008300,0.00001200,-0.00000605,-0.00001979,0.00001389,
 -0.00009658,0.00004336,-0.00005291,0.00003680,0.00002353,-0.00017361,0
 .00017229,-0.00000872,0.00002512,-0.00005415,-0.00002003,0.00010625,0.
 00013881,0.00031335,0.00016620,-0.00017894,0.00017556,-0.00031429,0.00
 005954,-0.00007902,0.00016721,-0.00000922,0.00004106,0.02415058,0.0071
 1423,-0.02340166,-0.00000025,-0.00021336,0.00306282,0.00021429,0.00062
 053,-0.00030916,0.22601908,0.03443525,-0.26279462,-0.24747279,-0.03848
 839,0.28693646\\0.00000199,0.00000453,0.00000054,0.00000258,0.00000433
 ,0.00000367,0.00000326,0.00000835,-0.00000113,0.00000401,0.00000961,-0
 .00000007,0.00000020,-0.00000071,0.00000224,0.00000102,-0.00000035,0.0
 0000566,0.00000139,0.00000307,0.00000029,0.00000053,0.00000234,-0.0000
 0207,0.00000089,0.00000242,-0.00000065,0.00000034,0.00000388,-0.000006
 18,0.00000146,0.00000649,-0.00000622,-0.00000127,-0.00000198,-0.000002
 10,-0.00000200,-0.00000374,-0.00000219,-0.00000220,-0.00000253,-0.0000
 0548,-0.00000174,-0.00000047,-0.00000750,-0.00000102,-0.00000324,0.000
 00177,-0.00000228,-0.00000619,0.00000149,-0.00000030,-0.00000321,0.000
 00506,-0.00000037,-0.00000455,0.00000744,-0.00000076,-0.00000230,0.000
 00085,-0.00000177,-0.00000304,-0.00000228,0.00000018,-0.00000009,0.000
 00096,-0.00000168,-0.00000557,0.00000361,-0.00000246,-0.00000704,0.000
 00231\\\@


 A BIRD IN THE HAND IS SAFER THAN ONE OVERHEAD.

                       -- NEWTON'S SEVENTH LAW
 Job cpu time:  0 days 16 hours 36 minutes 24.6 seconds.
 File lengths (MBytes):  RWF=    465 Int=      0 D2E=      0 Chk=     17 Scr=      1
 Normal termination of Gaussian 09 at Sat Sep 15 13:29:39 2012.
