 Entering Gaussian System, Link 0=g09
 Initial command:
 /projects/nrel/apps/gaussian/g09/B.01/g09/l1.exe /scratch/hbmayes/bxyl_4h5_38m062xm06relb3lypbigcon2b3ltstts.2229748.scr/Gau-23373.inp -scrdir=/scratch/hbmayes/bxyl_4h5_38m062xm06relb3lypbigcon2b3ltstts.2229748.scr/
 Default is to use a total of   8 processors:
                                8 via shared-memory
                                1 via Linda
 Entering Link 1 = /projects/nrel/apps/gaussian/g09/B.01/g09/l1.exe PID=     23374.
  
 Copyright (c) 1988,1990,1992,1993,1995,1998,2003,2009,2010,
            Gaussian, Inc.  All Rights Reserved.
  
 This is part of the Gaussian(R) 09 program.  It is based on
 the Gaussian(R) 03 system (copyright 2003, Gaussian, Inc.),
 the Gaussian(R) 98 system (copyright 1998, Gaussian, Inc.),
 the Gaussian(R) 94 system (copyright 1995, Gaussian, Inc.),
 the Gaussian 92(TM) system (copyright 1992, Gaussian, Inc.),
 the Gaussian 90(TM) system (copyright 1990, Gaussian, Inc.),
 the Gaussian 88(TM) system (copyright 1988, Gaussian, Inc.),
 the Gaussian 86(TM) system (copyright 1986, Carnegie Mellon
 University), and the Gaussian 82(TM) system (copyright 1983,
 Carnegie Mellon University). Gaussian is a federally registered
 trademark of Gaussian, Inc.
  
 This software contains proprietary and confidential information,
 including trade secrets, belonging to Gaussian, Inc.
  
 This software is provided under written license and may be
 used, copied, transmitted, or stored only in accord with that
 written license.
  
 The following legend is applicable only to US Government
 contracts under FAR:
  
                    RESTRICTED RIGHTS LEGEND
  
 Use, reproduction and disclosure by the US Government is
 subject to restrictions as set forth in subparagraphs (a)
 and (c) of the Commercial Computer Software - Restricted
 Rights clause in FAR 52.227-19.
  
 Gaussian, Inc.
 340 Quinnipiac St., Bldg. 40, Wallingford CT 06492
  
  
 ---------------------------------------------------------------
 Warning -- This program may not be used in any manner that
 competes with the business of Gaussian, Inc. or will provide
 assistance to any competitor of Gaussian, Inc.  The licensee
 of this program is prohibited from giving any competitor of
 Gaussian, Inc. access to this program.  By using this program,
 the user acknowledges that Gaussian, Inc. is engaged in the
 business of creating and licensing software in the field of
 computational chemistry and represents and warrants to the
 licensee that it is not a competitor of Gaussian, Inc. and that
 it will not use this program in any manner prohibited above.
 ---------------------------------------------------------------
  

 Cite this work as:
 Gaussian 09, Revision B.01,
 M. J. Frisch, G. W. Trucks, H. B. Schlegel, G. E. Scuseria, 
 M. A. Robb, J. R. Cheeseman, G. Scalmani, V. Barone, B. Mennucci, 
 G. A. Petersson, H. Nakatsuji, M. Caricato, X. Li, H. P. Hratchian, 
 A. F. Izmaylov, J. Bloino, G. Zheng, J. L. Sonnenberg, M. Hada, 
 M. Ehara, K. Toyota, R. Fukuda, J. Hasegawa, M. Ishida, T. Nakajima, 
 Y. Honda, O. Kitao, H. Nakai, T. Vreven, J. A. Montgomery, Jr., 
 J. E. Peralta, F. Ogliaro, M. Bearpark, J. J. Heyd, E. Brothers, 
 K. N. Kudin, V. N. Staroverov, T. Keith, R. Kobayashi, J. Normand, 
 K. Raghavachari, A. Rendell, J. C. Burant, S. S. Iyengar, J. Tomasi, 
 M. Cossi, N. Rega, J. M. Millam, M. Klene, J. E. Knox, J. B. Cross, 
 V. Bakken, C. Adamo, J. Jaramillo, R. Gomperts, R. E. Stratmann, 
 O. Yazyev, A. J. Austin, R. Cammi, C. Pomelli, J. W. Ochterski, 
 R. L. Martin, K. Morokuma, V. G. Zakrzewski, G. A. Voth, 
 P. Salvador, J. J. Dannenberg, S. Dapprich, A. D. Daniels, 
 O. Farkas, J. B. Foresman, J. V. Ortiz, J. Cioslowski, 
 and D. J. Fox, Gaussian, Inc., Wallingford CT, 2010.
 
 ******************************************
 Gaussian 09:  EM64L-G09RevB.01 12-Aug-2010
                28-Oct-2012 
 ******************************************
 %RWF=/dev/shm/,2GB,/scratch/hbmayes/bxyl_4h5_38m062xm06relb3lypbigcon2b3ltstts.2
 229748.scr/,-1
 %NoSave
 %chk=/scratch/hbmayes/bxylose/bxyl_4h5_38m062xm06relb3lypbigcon2b3ltstts.chk
 %mem=10GB
 %nproc=8
 Will use up to    8 processors via shared memory.
 Default route:  MaxDisk=16GB
 ----------------------------------------------------------------------
 # opt=(TS,ReadFC,Tight,noeigen) Freq b3lyp/6-311+G(2df,p) nosymm Int=(
 Grid=Ultrafine) scf=xqc guess=read geom=allcheck
 ----------------------------------------------------------------------
 1/5=1,7=10,10=3,11=1,14=-1,18=20,26=3,29=7,38=1/1,3;
 2/9=110,12=2,15=1,40=1/2;
 3/5=4,6=6,7=114,11=2,14=-4,16=1,25=1,30=1,71=1,74=-5,75=-5,116=-2/1,2,3;
 4/5=1/1;
 5/5=2,8=3,13=1,38=6/2,8;
 6/7=2,8=2,9=2,10=2,28=1/1;
 7/30=1/1,2,3,16;
 1/5=1,7=10,11=1,14=-1,18=20/3(2);
 2/9=110,15=1/2;
 99//99;
 2/9=110,15=1/2;
 3/5=4,6=6,7=114,11=2,14=-2,16=1,25=1,30=1,71=1,74=-5,75=-5/1,2,3;
 4/5=5,16=3/1;
 5/5=2,8=3,13=1,38=5/2,8;
 7/30=1/1,2,3,16;
 1/5=1,7=10,11=1,14=-1,18=20/3(-5);
 2/9=110,15=1/2;
 6/7=2,8=2,9=2,10=2,19=2,28=1/1;
 99/9=1/99;
 ---------------------------------------------
 Starting Geometry for Conformational Analysis
 ---------------------------------------------
 Redundant internal coordinates taken from checkpoint file:
 /scratch/hbmayes/bxylose/bxyl_4h5_38m062xm06relb3lypbigcon2b3ltstts.chk
 Charge =  0 Multiplicity = 1
 C,0,4.7929570262,-0.4169839374,1.2092858492
 H,0,4.648295478,-0.3580559186,0.123351725
 O,0,5.6027205972,0.6582292435,1.6364231578
 H,0,5.1755477092,1.4846030311,1.3834360853
 C,0,2.9437399925,-1.3030759137,2.668087083
 H,0,1.9780077791,-1.5856716114,2.2439418393
 H,0,2.7646121045,-0.817904429,3.6300645313
 O,0,3.5110663536,-0.3290275696,1.781586879
 C,0,5.5800940994,-1.6876581904,1.5272749721
 H,0,6.1093429275,-1.5372818593,2.4757631746
 O,0,6.5125291444,-1.9864059971,0.4952931728
 H,0,7.2133159097,-1.3254877012,0.5082107022
 C,0,4.6438896756,-2.8685973406,1.6728565783
 H,0,4.0345110611,-2.9822058288,0.7652894197
 O,0,5.3475047127,-4.0712957524,1.9403766727
 H,0,6.0585786502,-4.1497632047,1.2928320781
 C,0,3.7475104295,-2.5916903515,2.8667454933
 H,0,4.4005461439,-2.5017795325,3.745258687
 O,0,2.8062447433,-3.6297645273,3.0832448476
 H,0,3.2967044625,-4.4571086092,3.1620220517
 Recover connectivity data from disk.

 GradGradGradGradGradGradGradGradGradGradGradGradGradGradGradGradGradGrad
 Berny optimization.
 Initialization pass.
 Force constant matrix read from checkpoint file:
 /scratch/hbmayes/bxylose/bxyl_4h5_38m062xm06relb3lypbigcon2b3ltstts.chk
                           ----------------------------
                           !    Initial Parameters    !
                           ! (Angstroms and Degrees)  !
 --------------------------                            --------------------------
 ! Name  Definition              Value          Derivative Info.                !
 --------------------------------------------------------------------------------
 ! R1    R(1,2)                  1.0971         D2E/DX2 =    0.3188             !
 ! R2    R(1,3)                  1.4122         D2E/DX2 =    0.3223             !
 ! R3    R(1,8)                  1.4066         D2E/DX2 =    0.2764             !
 ! R4    R(1,9)                  1.5282         D2E/DX2 =    0.2377             !
 ! R5    R(3,4)                  0.964          D2E/DX2 =    0.5237             !
 ! R6    R(5,6)                  1.092          D2E/DX2 =    0.3322             !
 ! R7    R(5,7)                  1.0922         D2E/DX2 =    0.3303             !
 ! R8    R(5,8)                  1.4341         D2E/DX2 =    0.2681             !
 ! R9    R(5,17)                 1.5317         D2E/DX2 =    0.2421             !
 ! R10   R(9,10)                 1.0965         D2E/DX2 =    0.322              !
 ! R11   R(9,11)                 1.4226         D2E/DX2 =    0.3328             !
 ! R12   R(9,13)                 1.514          D2E/DX2 =    0.2509             !
 ! R13   R(11,12)                0.9634         D2E/DX2 =    0.526              !
 ! R14   R(13,14)                1.0991         D2E/DX2 =    0.3168             !
 ! R15   R(13,15)                1.4188         D2E/DX2 =    0.3378             !
 ! R16   R(13,17)                1.5184         D2E/DX2 =    0.2457             !
 ! R17   R(15,16)                0.9649         D2E/DX2 =    0.5201             !
 ! R18   R(17,18)                1.0983         D2E/DX2 =    0.3157             !
 ! R19   R(17,19)                1.4179         D2E/DX2 =    0.3398             !
 ! R20   R(19,20)                0.965          D2E/DX2 =    0.52               !
 ! A1    A(2,1,3)              109.5177         D2E/DX2 =    0.0354             !
 ! A2    A(2,1,8)              106.2124         D2E/DX2 =    0.0321             !
 ! A3    A(2,1,9)              108.5749         D2E/DX2 =    0.0394             !
 ! A4    A(3,1,8)              110.6037         D2E/DX2 =    0.0716             !
 ! A5    A(3,1,9)              105.9499         D2E/DX2 =    0.0997             !
 ! A6    A(8,1,9)              115.8967         D2E/DX2 =    0.0647             !
 ! A7    A(1,3,4)              108.6146         D2E/DX2 =    0.1738             !
 ! A8    A(6,5,7)              108.1815         D2E/DX2 =    0.0269             !
 ! A9    A(6,5,8)              106.5912         D2E/DX2 =    0.0487             !
 ! A10   A(6,5,17)             107.2626         D2E/DX2 =    0.0587             !
 ! A11   A(7,5,8)              107.9168         D2E/DX2 =    0.0531             !
 ! A12   A(7,5,17)             110.2156         D2E/DX2 =    0.0628             !
 ! A13   A(8,5,17)             116.3603         D2E/DX2 =    0.0813             !
 ! A14   A(1,8,5)              124.721          D2E/DX2 =    0.089              !
 ! A15   A(1,9,10)             108.3351         D2E/DX2 =    0.0238             !
 ! A16   A(1,9,11)             111.1792         D2E/DX2 =    0.0537             !
 ! A17   A(1,9,13)             110.4917         D2E/DX2 =    0.0505             !
 ! A18   A(10,9,11)            109.8732         D2E/DX2 =    0.022              !
 ! A19   A(10,9,13)            108.7991         D2E/DX2 =    0.0244             !
 ! A20   A(11,9,13)            108.135          D2E/DX2 =    0.0545             !
 ! A21   A(9,11,12)            108.8446         D2E/DX2 =    0.1726             !
 ! A22   A(9,13,14)            110.1253         D2E/DX2 =    0.024              !
 ! A23   A(9,13,15)            111.8795         D2E/DX2 =    0.0513             !
 ! A24   A(9,13,17)            107.3615         D2E/DX2 =    0.0468             !
 ! A25   A(14,13,15)           110.0618         D2E/DX2 =    0.0224             !
 ! A26   A(14,13,17)           109.9267         D2E/DX2 =    0.0229             !
 ! A27   A(15,13,17)           107.4029         D2E/DX2 =    0.0538             !
 ! A28   A(13,15,16)           107.9292         D2E/DX2 =    0.1805             !
 ! A29   A(5,17,13)            111.1763         D2E/DX2 =    0.0543             !
 ! A30   A(5,17,18)            110.2967         D2E/DX2 =    0.0245             !
 ! A31   A(5,17,19)            106.7012         D2E/DX2 =    0.0575             !
 ! A32   A(13,17,18)           107.0283         D2E/DX2 =    0.0267             !
 ! A33   A(13,17,19)           112.237          D2E/DX2 =    0.0521             !
 ! A34   A(18,17,19)           109.4208         D2E/DX2 =    0.0224             !
 ! A35   A(17,19,20)           107.6226         D2E/DX2 =    0.1829             !
 ! D1    D(2,1,3,4)             58.1872         D2E/DX2 =    0.0212             !
 ! D2    D(8,1,3,4)            -58.5389         D2E/DX2 =    0.0206             !
 ! D3    D(9,1,3,4)            175.1107         D2E/DX2 =    0.0151             !
 ! D4    D(2,1,8,5)            123.6356         D2E/DX2 =    0.0222             !
 ! D5    D(3,1,8,5)           -117.6122         D2E/DX2 =    0.0385             !
 ! D6    D(9,1,8,5)              2.9763         D2E/DX2 =    0.0111             !
 ! D7    D(2,1,9,10)           154.5188         D2E/DX2 =    0.0161             !
 ! D8    D(2,1,9,11)            33.6907         D2E/DX2 =    0.0198             !
 ! D9    D(2,1,9,13)           -86.3856         D2E/DX2 =    0.0176             !
 ! D10   D(3,1,9,10)            36.9629         D2E/DX2 =    0.0198             !
 ! D11   D(3,1,9,11)           -83.8652         D2E/DX2 =    0.0227             !
 ! D12   D(3,1,9,13)           156.0585         D2E/DX2 =    0.0233             !
 ! D13   D(8,1,9,10)           -86.1029         D2E/DX2 =    0.0183             !
 ! D14   D(8,1,9,11)           153.069          D2E/DX2 =    0.0227             !
 ! D15   D(8,1,9,13)            32.9927         D2E/DX2 =    0.0144             !
 ! D16   D(6,5,8,1)           -126.5522         D2E/DX2 =    0.0276             !
 ! D17   D(7,5,8,1)            117.4391         D2E/DX2 =    0.0256             !
 ! D18   D(17,5,8,1)            -6.9998         D2E/DX2 =    0.0096             !
 ! D19   D(6,5,17,13)           94.0115         D2E/DX2 =    0.0182             !
 ! D20   D(6,5,17,18)         -147.4259         D2E/DX2 =    0.0168             !
 ! D21   D(6,5,17,19)          -28.6688         D2E/DX2 =    0.0196             !
 ! D22   D(7,5,17,13)         -148.4319         D2E/DX2 =    0.0171             !
 ! D23   D(7,5,17,18)          -29.8693         D2E/DX2 =    0.0158             !
 ! D24   D(7,5,17,19)           88.8878         D2E/DX2 =    0.0186             !
 ! D25   D(8,5,17,13)          -25.1779         D2E/DX2 =    0.0131             !
 ! D26   D(8,5,17,18)           93.3847         D2E/DX2 =    0.0168             !
 ! D27   D(8,5,17,19)         -147.8582         D2E/DX2 =    0.0209             !
 ! D28   D(1,9,11,12)           69.4572         D2E/DX2 =    0.0116             !
 ! D29   D(10,9,11,12)         -50.4619         D2E/DX2 =    0.0115             !
 ! D30   D(13,9,11,12)        -169.0792         D2E/DX2 =    0.0121             !
 ! D31   D(1,9,13,14)           55.9926         D2E/DX2 =    0.016              !
 ! D32   D(1,9,13,15)          178.7347         D2E/DX2 =    0.0229             !
 ! D33   D(1,9,13,17)          -63.6688         D2E/DX2 =    0.016              !
 ! D34   D(10,9,13,14)         174.8065         D2E/DX2 =    0.0143             !
 ! D35   D(10,9,13,15)         -62.4514         D2E/DX2 =    0.0192             !
 ! D36   D(10,9,13,17)          55.1451         D2E/DX2 =    0.0173             !
 ! D37   D(11,9,13,14)         -65.895          D2E/DX2 =    0.0187             !
 ! D38   D(11,9,13,15)          56.8471         D2E/DX2 =    0.024              !
 ! D39   D(11,9,13,17)         174.4436         D2E/DX2 =    0.0242             !
 ! D40   D(9,13,15,16)         -49.6628         D2E/DX2 =    0.0118             !
 ! D41   D(14,13,15,16)         73.1154         D2E/DX2 =    0.0117             !
 ! D42   D(17,13,15,16)       -167.2345         D2E/DX2 =    0.0113             !
 ! D43   D(9,13,17,5)           59.4784         D2E/DX2 =    0.0159             !
 ! D44   D(9,13,17,18)         -61.0328         D2E/DX2 =    0.0174             !
 ! D45   D(9,13,17,19)         178.9072         D2E/DX2 =    0.0239             !
 ! D46   D(14,13,17,5)         -60.3098         D2E/DX2 =    0.0166             !
 ! D47   D(14,13,17,18)        179.179          D2E/DX2 =    0.0147             !
 ! D48   D(14,13,17,19)         59.1189         D2E/DX2 =    0.0189             !
 ! D49   D(15,13,17,5)         179.9538         D2E/DX2 =    0.0229             !
 ! D50   D(15,13,17,18)         59.4427         D2E/DX2 =    0.0192             !
 ! D51   D(15,13,17,19)        -60.6174         D2E/DX2 =    0.0234             !
 ! D52   D(5,17,19,20)         176.9526         D2E/DX2 =    0.012              !
 ! D53   D(13,17,19,20)         54.939          D2E/DX2 =    0.0132             !
 ! D54   D(18,17,19,20)        -63.7206         D2E/DX2 =    0.0127             !
 --------------------------------------------------------------------------------
 Trust Radius=3.00D-01 FncErr=1.00D-07 GrdErr=1.00D-06
 Number of steps in this run=    119 maximum allowed number of steps=    120.
 Search for a saddle point of order  1.
 GradGradGradGradGradGradGradGradGradGradGradGradGradGradGradGradGradGrad

                          Input orientation:                          
 ---------------------------------------------------------------------
 Center     Atomic      Atomic             Coordinates (Angstroms)
 Number     Number       Type             X           Y           Z
 ---------------------------------------------------------------------
      1          6           0        4.792957   -0.416984    1.209286
      2          1           0        4.648295   -0.358056    0.123352
      3          8           0        5.602721    0.658229    1.636423
      4          1           0        5.175548    1.484603    1.383436
      5          6           0        2.943740   -1.303076    2.668087
      6          1           0        1.978008   -1.585672    2.243942
      7          1           0        2.764612   -0.817904    3.630065
      8          8           0        3.511066   -0.329028    1.781587
      9          6           0        5.580094   -1.687658    1.527275
     10          1           0        6.109343   -1.537282    2.475763
     11          8           0        6.512529   -1.986406    0.495293
     12          1           0        7.213316   -1.325488    0.508211
     13          6           0        4.643890   -2.868597    1.672857
     14          1           0        4.034511   -2.982206    0.765289
     15          8           0        5.347505   -4.071296    1.940377
     16          1           0        6.058579   -4.149763    1.292832
     17          6           0        3.747510   -2.591690    2.866745
     18          1           0        4.400546   -2.501780    3.745259
     19          8           0        2.806245   -3.629765    3.083245
     20          1           0        3.296704   -4.457109    3.162022
 ---------------------------------------------------------------------
                    Distance matrix (angstroms):
                    1          2          3          4          5
     1  C    0.000000
     2  H    1.097111   0.000000
     3  O    1.412178   2.057462   0.000000
     4  H    1.947495   2.293730   0.964040   0.000000
     5  C    2.516518   3.205347   3.461391   3.795056   0.000000
     6  H    3.218739   3.624138   4.306125   4.515675   1.091970
     7  H    3.183566   4.007089   3.769408   4.020136   1.092190
     8  O    1.406595   2.010939   2.317491   2.493648   1.434054
     9  C    1.528174   2.146414   2.348534   3.201186   2.898227
    10  H    2.142873   3.009829   2.404460   3.346183   3.180076
    11  O    2.435118   2.503044   3.020600   3.824163   4.233702
    12  H    2.678623   2.768279   2.793208   3.579822   4.784856
    13  C    2.499505   2.950221   3.655023   4.395086   2.516317
    14  H    2.711593   2.770375   4.058438   4.651500   2.762227
    15  O    3.767760   4.192687   4.746149   5.586391   3.737738
    16  H    3.942387   4.211131   4.841761   5.703861   4.438150
    17  C    2.927367   3.650582   3.939223   4.566800   1.531679
    18  H    3.306285   4.216057   3.984729   4.697880   2.172435
    19  O    4.216718   4.781025   5.319818   5.887249   2.367433
    20  H    4.730175   5.278499   5.814795   6.480537   3.211927
                    6          7          8          9         10
     6  H    0.000000
     7  H    1.769053   0.000000
     8  O    2.035484   2.052575   0.000000
     9  C    3.674104   3.620101   2.488258   0.000000
    10  H    4.138117   3.610698   2.948356   1.096516   0.000000
    11  O    4.876499   5.023850   3.661999   1.422558   2.070394
    12  H    5.521676   5.458441   4.039935   1.958845   2.266026
    13  C    3.013132   3.401130   2.782899   1.514031   2.136496
    14  H    2.892391   3.808383   2.888981   2.155296   3.052614
    15  O    4.198093   4.484522   4.171605   2.430325   2.699678
    16  H    4.912253   5.235853   4.618086   2.519101   2.868268
    17  C    2.128638   2.166809   2.520539   2.443321   2.615893
    18  H    2.993643   2.350529   3.060724   2.640753   2.337062
    19  O    2.359814   2.864839   3.617451   3.726535   3.957016
    20  H    3.290438   3.707559   4.358051   3.944125   4.111846
                   11         12         13         14         15
    11  O    0.000000
    12  H    0.963370   0.000000
    13  C    2.378388   3.215515   0.000000
    14  H    2.684230   3.593829   1.099057   0.000000
    15  O    2.791472   3.615496   1.418846   2.071449   0.000000
    16  H    2.349948   3.150489   1.946060   2.395483   0.964934
    17  C    3.692626   4.379242   1.518402   2.156615   2.367989
    18  H    3.910033   4.446776   2.118637   3.040560   2.572491
    19  O    4.809851   5.600247   2.438342   2.702016   2.821188
    20  H    4.853591   5.673589   2.560447   2.909300   2.418068
                   16         17         18         19         20
    16  H    0.000000
    17  C    3.200911   0.000000
    18  H    3.388114   1.098328   0.000000
    19  O    3.748820   1.417904   2.062137   0.000000
    20  H    3.349072   1.941700   2.319902   0.965015   0.000000
 Symmetry turned off by external request.
 Stoichiometry    C5H10O5
 Framework group  C1[X(C5H10O5)]
 Deg. of freedom    54
 Full point group                 C1      NOp   1
 Rotational constants (GHZ):      1.8078894      1.2146110      0.7779674
 Standard basis: 6-311+G(2df,p) (5D, 7F)
 Integral buffers will be    131072 words long.
 Raffenetti 2 integral format.
 Two-electron integral symmetry is turned off.
   400 basis functions,   600 primitive gaussians,   450 cartesian basis functions
    40 alpha electrons       40 beta electrons
       nuclear repulsion energy       614.9130433751 Hartrees.
 NAtoms=   20 NActive=   20 NUniq=   20 SFac= 1.00D+00 NAtFMM=   50 NAOKFM=F Big=F
 One-electron integrals computed using PRISM.
 NBasis=   400 RedAO= T  NBF=   400
 NBsUse=   400 1.00D-06 NBFU=   400
 Initial guess read from the checkpoint file:  /scratch/hbmayes/bxylose/bxyl_4h5_38m062xm06relb3lypbigcon2b3ltstts.chk
 B after Tr=     0.000000    0.000000    0.000000
         Rot=    1.000000    0.000000    0.000000    0.000000 Ang=   0.00 deg.
 Requested convergence on RMS density matrix=1.00D-08 within  64 cycles.
 Requested convergence on MAX density matrix=1.00D-06.
 Requested convergence on             energy=1.00D-06.
 No special actions if energy rises.
 SCF Done:  E(RB3LYP) =  -572.847519008     A.U. after    5 cycles
             Convg  =    0.6443D-08             -V/T =  2.0036
 QCSCF skips out because SCF is already converged.

 **********************************************************************

            Population analysis using the SCF density.

 **********************************************************************

 Alpha  occ. eigenvalues --  -19.15018 -19.14572 -19.14058 -19.13943 -19.13318
 Alpha  occ. eigenvalues --  -10.28543 -10.24013 -10.23568 -10.23487 -10.22922
 Alpha  occ. eigenvalues --   -1.08511  -1.05888  -1.04534  -1.02675  -1.01883
 Alpha  occ. eigenvalues --   -0.80244  -0.76909  -0.67099  -0.65735  -0.58718
 Alpha  occ. eigenvalues --   -0.58346  -0.53948  -0.53005  -0.51301  -0.50963
 Alpha  occ. eigenvalues --   -0.47267  -0.46546  -0.44710  -0.42333  -0.42261
 Alpha  occ. eigenvalues --   -0.39150  -0.38786  -0.37754  -0.35797  -0.33491
 Alpha  occ. eigenvalues --   -0.31772  -0.30283  -0.29589  -0.28994  -0.28020
 Alpha virt. eigenvalues --   -0.00708  -0.00147   0.01311   0.01415   0.02791
 Alpha virt. eigenvalues --    0.04106   0.04541   0.05782   0.06308   0.07735
 Alpha virt. eigenvalues --    0.08598   0.08910   0.10134   0.10601   0.11020
 Alpha virt. eigenvalues --    0.11160   0.11984   0.12882   0.13609   0.14205
 Alpha virt. eigenvalues --    0.14798   0.15676   0.16047   0.16700   0.17692
 Alpha virt. eigenvalues --    0.18829   0.18922   0.20134   0.21264   0.21365
 Alpha virt. eigenvalues --    0.21635   0.22216   0.22995   0.23385   0.23935
 Alpha virt. eigenvalues --    0.24551   0.25159   0.26376   0.26483   0.26888
 Alpha virt. eigenvalues --    0.27538   0.27997   0.28881   0.29065   0.29703
 Alpha virt. eigenvalues --    0.30087   0.31161   0.32112   0.32999   0.33208
 Alpha virt. eigenvalues --    0.33767   0.34396   0.34877   0.36365   0.37020
 Alpha virt. eigenvalues --    0.38323   0.38615   0.39049   0.40442   0.40886
 Alpha virt. eigenvalues --    0.45051   0.46038   0.48365   0.49682   0.51703
 Alpha virt. eigenvalues --    0.53595   0.54647   0.55521   0.55984   0.57042
 Alpha virt. eigenvalues --    0.58177   0.59109   0.61606   0.62585   0.64159
 Alpha virt. eigenvalues --    0.64656   0.65350   0.65930   0.66954   0.68727
 Alpha virt. eigenvalues --    0.69656   0.69963   0.70913   0.71781   0.72976
 Alpha virt. eigenvalues --    0.74680   0.80118   0.83119   0.84586   0.89033
 Alpha virt. eigenvalues --    0.91211   0.94421   0.95317   0.97604   0.98694
 Alpha virt. eigenvalues --    0.99478   1.00018   1.01915   1.03413   1.04334
 Alpha virt. eigenvalues --    1.05116   1.07362   1.07889   1.08815   1.09658
 Alpha virt. eigenvalues --    1.10879   1.11316   1.12529   1.14043   1.14844
 Alpha virt. eigenvalues --    1.16450   1.18562   1.20039   1.20745   1.22106
 Alpha virt. eigenvalues --    1.24252   1.24676   1.26264   1.28148   1.29535
 Alpha virt. eigenvalues --    1.30566   1.32682   1.33160   1.34439   1.35616
 Alpha virt. eigenvalues --    1.37330   1.39371   1.40025   1.44126   1.46793
 Alpha virt. eigenvalues --    1.48621   1.49738   1.52453   1.54164   1.54962
 Alpha virt. eigenvalues --    1.56538   1.56938   1.58793   1.60525   1.63297
 Alpha virt. eigenvalues --    1.64295   1.67527   1.69584   1.71246   1.71794
 Alpha virt. eigenvalues --    1.74815   1.75786   1.76695   1.79537   1.84226
 Alpha virt. eigenvalues --    1.85538   1.90597   1.93061   1.93974   1.96725
 Alpha virt. eigenvalues --    1.97944   2.00438   2.02833   2.04618   2.07484
 Alpha virt. eigenvalues --    2.07935   2.11319   2.12220   2.13331   2.14629
 Alpha virt. eigenvalues --    2.17609   2.19293   2.21656   2.22810   2.23747
 Alpha virt. eigenvalues --    2.24405   2.27179   2.28090   2.30703   2.32836
 Alpha virt. eigenvalues --    2.33665   2.34882   2.36389   2.38090   2.41676
 Alpha virt. eigenvalues --    2.43431   2.43753   2.46729   2.48719   2.53599
 Alpha virt. eigenvalues --    2.55831   2.56524   2.57250   2.58342   2.60548
 Alpha virt. eigenvalues --    2.61278   2.64448   2.67536   2.69762   2.71060
 Alpha virt. eigenvalues --    2.76208   2.84052   2.86546   2.90647   2.91273
 Alpha virt. eigenvalues --    2.93550   2.94200   2.96566   2.98076   3.01415
 Alpha virt. eigenvalues --    3.03045   3.03627   3.05201   3.09181   3.11083
 Alpha virt. eigenvalues --    3.12889   3.14341   3.21815   3.24022   3.24322
 Alpha virt. eigenvalues --    3.27314   3.28303   3.31309   3.32769   3.36183
 Alpha virt. eigenvalues --    3.37930   3.38909   3.42930   3.45029   3.45882
 Alpha virt. eigenvalues --    3.47170   3.48138   3.49206   3.51503   3.53032
 Alpha virt. eigenvalues --    3.55318   3.57564   3.60672   3.62038   3.63481
 Alpha virt. eigenvalues --    3.65125   3.66155   3.67934   3.69934   3.71883
 Alpha virt. eigenvalues --    3.73279   3.77885   3.79917   3.81632   3.83091
 Alpha virt. eigenvalues --    3.85702   3.87398   3.88210   3.91234   3.91976
 Alpha virt. eigenvalues --    3.97148   3.98582   4.01419   4.09638   4.11605
 Alpha virt. eigenvalues --    4.13053   4.13328   4.16828   4.19734   4.23630
 Alpha virt. eigenvalues --    4.29801   4.32267   4.37402   4.38307   4.45849
 Alpha virt. eigenvalues --    4.47466   4.53792   4.57945   4.60425   4.67312
 Alpha virt. eigenvalues --    4.73021   4.88300   4.94936   5.05300   5.06421
 Alpha virt. eigenvalues --    5.09637   5.11617   5.12425   5.13549   5.14820
 Alpha virt. eigenvalues --    5.15330   5.16059   5.17481   5.18342   5.18948
 Alpha virt. eigenvalues --    5.19693   5.20072   5.21618   5.22923   5.26178
 Alpha virt. eigenvalues --    5.28306   5.30272   5.33002   5.34868   5.35791
 Alpha virt. eigenvalues --    5.36553   5.37363   5.38930   5.41509   5.42469
 Alpha virt. eigenvalues --    5.43780   5.45175   5.47509   5.49506   5.58703
 Alpha virt. eigenvalues --    5.71578   5.74185   5.77203   5.80554   5.83456
 Alpha virt. eigenvalues --    5.86787   5.87612   5.90062   5.99596   6.18513
 Alpha virt. eigenvalues --    6.27808   6.29730   6.30728   6.31765   6.35487
 Alpha virt. eigenvalues --    6.47597   6.50560   6.56538   6.58958   6.73813
 Alpha virt. eigenvalues --    6.91566   6.93943   6.96160   6.98013   7.06636
 Alpha virt. eigenvalues --    7.12925   7.16293   7.17620   7.18320   7.20094
 Alpha virt. eigenvalues --    7.23349   7.25334   7.29012   7.30262   7.40578
 Alpha virt. eigenvalues --    7.49475   7.50377   7.53403   7.57674   7.59319
 Alpha virt. eigenvalues --    7.61468   7.65504   7.66316   7.74647   7.86007
 Alpha virt. eigenvalues --   24.26069  24.34388  24.42274  24.47540  24.50837
 Alpha virt. eigenvalues --   49.95986  49.99025  50.02580  50.03509  50.08637
          Condensed to atoms (all electrons):
              1          2          3          4          5          6
     1  C    5.705952   0.478828   0.286813   0.012999  -0.246866  -0.003268
     2  H    0.478828   0.589869  -0.062142  -0.008274   0.002061   0.001012
     3  O    0.286813  -0.062142   8.054203   0.240937  -0.016013  -0.001040
     4  H    0.012999  -0.008274   0.240937   0.472915   0.003886  -0.000078
     5  C   -0.246866   0.002061  -0.016013   0.003886   5.833248   0.454952
     6  H   -0.003268   0.001012  -0.001040  -0.000078   0.454952   0.551910
     7  H    0.003660  -0.001154   0.001413   0.000192   0.421996  -0.048196
     8  O    0.142240  -0.071660  -0.024818   0.004296   0.082671  -0.055832
     9  C   -0.452292  -0.052319  -0.146504  -0.008353   0.326184   0.011092
    10  H   -0.055738   0.006178  -0.001318  -0.000268   0.002137  -0.000220
    11  O   -0.076923  -0.001544   0.010818  -0.001571   0.003299   0.000145
    12  H    0.005439   0.000487   0.005698  -0.000281  -0.001397   0.000005
    13  C   -0.125539  -0.021527   0.014272   0.003489  -0.211711  -0.029529
    14  H    0.008793   0.000087  -0.000280   0.000012   0.009679   0.000888
    15  O    0.013472  -0.000001  -0.000405   0.000045   0.039522  -0.000553
    16  H    0.011515  -0.000001  -0.000015   0.000003  -0.003291   0.000007
    17  C    0.287580   0.012439   0.021788  -0.008097  -0.294932  -0.037502
    18  H   -0.016505  -0.000193  -0.001134   0.000021  -0.082156   0.006767
    19  O    0.000491   0.000231   0.000163  -0.000019  -0.141308  -0.001054
    20  H    0.000290  -0.000013  -0.000021   0.000001   0.022445  -0.000062
              7          8          9         10         11         12
     1  C    0.003660   0.142240  -0.452292  -0.055738  -0.076923   0.005439
     2  H   -0.001154  -0.071660  -0.052319   0.006178  -0.001544   0.000487
     3  O    0.001413  -0.024818  -0.146504  -0.001318   0.010818   0.005698
     4  H    0.000192   0.004296  -0.008353  -0.000268  -0.001571  -0.000281
     5  C    0.421996   0.082671   0.326184   0.002137   0.003299  -0.001397
     6  H   -0.048196  -0.055832   0.011092  -0.000220   0.000145   0.000005
     7  H    0.587885  -0.058935  -0.015391   0.000165   0.000019  -0.000014
     8  O   -0.058935   8.177395  -0.028057   0.001769   0.003585  -0.000095
     9  C   -0.015391  -0.028057   6.543117   0.472215   0.285122  -0.014890
    10  H    0.000165   0.001769   0.472215   0.559251  -0.052681  -0.005481
    11  O    0.000019   0.003585   0.285122  -0.052681   8.107784   0.259507
    12  H   -0.000014  -0.000095  -0.014890  -0.005481   0.259507   0.447764
    13  C    0.045144   0.042033  -0.250424  -0.043419  -0.151155   0.001509
    14  H   -0.000149  -0.004057  -0.008439   0.005138  -0.000931  -0.000397
    15  O   -0.000466  -0.000009  -0.047010  -0.003745   0.004613   0.000166
    16  H    0.000037   0.000301  -0.042420   0.002263   0.012694  -0.000882
    17  C   -0.066005   0.031039  -0.568210  -0.018615   0.026735   0.003047
    18  H   -0.011841   0.006036   0.027095  -0.001935  -0.000352   0.000089
    19  O    0.004535   0.001469  -0.004695   0.001150  -0.000904   0.000012
    20  H   -0.000654  -0.000338   0.020048   0.000088  -0.000005   0.000003
             13         14         15         16         17         18
     1  C   -0.125539   0.008793   0.013472   0.011515   0.287580  -0.016505
     2  H   -0.021527   0.000087  -0.000001  -0.000001   0.012439  -0.000193
     3  O    0.014272  -0.000280  -0.000405  -0.000015   0.021788  -0.001134
     4  H    0.003489   0.000012   0.000045   0.000003  -0.008097   0.000021
     5  C   -0.211711   0.009679   0.039522  -0.003291  -0.294932  -0.082156
     6  H   -0.029529   0.000888  -0.000553   0.000007  -0.037502   0.006767
     7  H    0.045144  -0.000149  -0.000466   0.000037  -0.066005  -0.011841
     8  O    0.042033  -0.004057  -0.000009   0.000301   0.031039   0.006036
     9  C   -0.250424  -0.008439  -0.047010  -0.042420  -0.568210   0.027095
    10  H   -0.043419   0.005138  -0.003745   0.002263  -0.018615  -0.001935
    11  O   -0.151155  -0.000931   0.004613   0.012694   0.026735  -0.000352
    12  H    0.001509  -0.000397   0.000166  -0.000882   0.003047   0.000089
    13  C    6.425361   0.451469   0.261119   0.014803  -0.338168  -0.006712
    14  H    0.451469   0.572425  -0.054875  -0.002188  -0.106503   0.006171
    15  O    0.261119  -0.054875   8.084736   0.263518  -0.151516  -0.000378
    16  H    0.014803  -0.002188   0.263518   0.428381   0.011709  -0.000259
    17  C   -0.338168  -0.106503  -0.151516   0.011709   6.320177   0.424680
    18  H   -0.006712   0.006171  -0.000378  -0.000259   0.424680   0.599560
    19  O   -0.046186  -0.001749   0.001112   0.001145   0.352919  -0.061070
    20  H   -0.041731   0.002584   0.014892  -0.000025  -0.021563  -0.001803
             19         20
     1  C    0.000491   0.000290
     2  H    0.000231  -0.000013
     3  O    0.000163  -0.000021
     4  H   -0.000019   0.000001
     5  C   -0.141308   0.022445
     6  H   -0.001054  -0.000062
     7  H    0.004535  -0.000654
     8  O    0.001469  -0.000338
     9  C   -0.004695   0.020048
    10  H    0.001150   0.000088
    11  O   -0.000904  -0.000005
    12  H    0.000012   0.000003
    13  C   -0.046186  -0.041731
    14  H   -0.001749   0.002584
    15  O    0.001112   0.014892
    16  H    0.001145  -0.000025
    17  C    0.352919  -0.021563
    18  H   -0.061070  -0.001803
    19  O    8.004945   0.274511
    20  H    0.274511   0.432216
 Mulliken atomic charges:
              1
     1  C    0.019059
     2  H    0.127636
     3  O   -0.382413
     4  H    0.288144
     5  C   -0.204406
     6  H    0.150556
     7  H    0.137760
     8  O   -0.249032
     9  C   -0.045869
    10  H    0.133063
    11  O   -0.428257
    12  H    0.299712
    13  C    0.006901
    14  H    0.122324
    15  O   -0.424238
    16  H    0.302705
    17  C    0.118997
    18  H    0.113920
    19  O   -0.385698
    20  H    0.299138
 Sum of Mulliken atomic charges =   0.00000
 Mulliken charges with hydrogens summed into heavy atoms:
              1
     1  C    0.146695
     3  O   -0.094269
     5  C    0.083909
     8  O   -0.249032
     9  C    0.087194
    11  O   -0.128546
    13  C    0.129225
    15  O   -0.121533
    17  C    0.232917
    19  O   -0.086560
 Sum of Mulliken charges with hydrogens summed into heavy atoms =   0.00000
 Electronic spatial extent (au):  <R**2>=           9401.3292
 Charge=              0.0000 electrons
 Dipole moment (field-independent basis, Debye):
    X=              1.4352    Y=              1.1520    Z=             -0.6898  Tot=              1.9654
 Quadrupole moment (field-independent basis, Debye-Ang):
   XX=            -48.2178   YY=            -61.9725   ZZ=            -62.1347
   XY=              1.4629   XZ=             -0.8060   YZ=              1.8616
 Traceless Quadrupole moment (field-independent basis, Debye-Ang):
   XX=              9.2238   YY=             -4.5308   ZZ=             -4.6930
   XY=              1.4629   XZ=             -0.8060   YZ=              1.8616
 Octapole moment (field-independent basis, Debye-Ang**2):
  XXX=           -724.8125  YYY=            342.6988  ZZZ=           -342.3425  XYY=           -270.1435
  XXY=            105.7029  XXZ=           -117.9462  XZZ=           -278.9140  YZZ=            115.2807
  YYZ=           -123.6805  XYZ=             -2.9273
 Hexadecapole moment (field-independent basis, Debye-Ang**3):
 XXXX=          -7236.7638 YYYY=          -1994.4816 ZZZZ=          -1589.6868 XXXY=           1360.5251
 XXXZ=          -1452.1644 YYYX=           1488.4598 YYYZ=            727.8183 ZZZX=          -1401.6223
 ZZZY=            707.0929 XXYY=          -1656.3976 XXZZ=          -1663.1695 YYZZ=           -634.6792
 XXYZ=            205.0643 YYXZ=           -493.6212 ZZXY=            479.6502
 N-N= 6.149130433751D+02 E-N=-2.575515096887D+03  KE= 5.707888644788D+02
 Calling FoFJK, ICntrl=      2127 FMM=F ISym2X=0 I1Cent= 0 IOpClX= 0 NMat=1 NMatS=1 NMatT=0.
 -------------------------------------------------------------------
 Center     Atomic                   Forces (Hartrees/Bohr)
 Number     Number              X              Y              Z
 -------------------------------------------------------------------
      1        6          -0.000180369    0.000157414    0.000069228
      2        1           0.000004002    0.000019024   -0.000002581
      3        8           0.000014401    0.000015034   -0.000010478
      4        1           0.000009636   -0.000009575   -0.000003785
      5        6           0.000093202    0.000014440   -0.000071354
      6        1          -0.000017456    0.000002794    0.000004136
      7        1           0.000009850    0.000005079   -0.000013533
      8        8           0.000119426   -0.000110671   -0.000015774
      9        6           0.000049989   -0.000041237   -0.000061603
     10        1           0.000004936    0.000026431    0.000022191
     11        8          -0.000024120    0.000034502    0.000024541
     12        1          -0.000005997    0.000014734   -0.000003344
     13        6           0.000078904   -0.000102261   -0.000003993
     14        1          -0.000012517   -0.000003097    0.000003559
     15        8           0.000032908   -0.000017331    0.000009703
     16        1          -0.000044894   -0.000006502    0.000002657
     17        6          -0.000094927    0.000022803    0.000056544
     18        1          -0.000014489   -0.000019262   -0.000016382
     19        8          -0.000011535   -0.000004961    0.000028602
     20        1          -0.000010949    0.000002643   -0.000018333
 -------------------------------------------------------------------
 Cartesian Forces:  Max     0.000180369 RMS     0.000050315

 GradGradGradGradGradGradGradGradGradGradGradGradGradGradGradGradGradGrad
 Berny optimization.
 Internal  Forces:  Max     0.000163038 RMS     0.000030819
 Search for a saddle point.
 Step number   1 out of a maximum of  119
 All quantities printed in internal units (Hartrees-Bohrs-Radians)
 Swaping is turned off.
 Second derivative matrix not updated -- first step.
 ITU=  0
     Eigenvalues ---   -0.00332   0.00078   0.00371   0.00383   0.00411
     Eigenvalues ---    0.00454   0.00868   0.02382   0.02591   0.04479
     Eigenvalues ---    0.04762   0.05094   0.05182   0.05337   0.05709
     Eigenvalues ---    0.06029   0.06300   0.06465   0.06813   0.06924
     Eigenvalues ---    0.08403   0.09652   0.10245   0.11629   0.12781
     Eigenvalues ---    0.14478   0.15335   0.15803   0.16477   0.17334
     Eigenvalues ---    0.18034   0.19621   0.19960   0.20640   0.24812
     Eigenvalues ---    0.25785   0.27060   0.27746   0.30372   0.30929
     Eigenvalues ---    0.31003   0.31213   0.31704   0.31940   0.32773
     Eigenvalues ---    0.34667   0.36667   0.37291   0.37950   0.39400
     Eigenvalues ---    0.52203   0.52240   0.52521   0.52712
 Eigenvectors required to have negative eigenvalues:
                          D18       D6        D17       D16       D5
   1                   -0.37589   0.34570  -0.34298  -0.34202   0.32274
                          D4        D25       D27       D26       D22
   1                    0.31871   0.18474   0.17267   0.17056   0.13995
 RFO step:  Lambda0=1.424976245D-08 Lambda=-1.14714583D-06.
 Linear search not attempted -- option 19 set.
 Iteration  1 RMS(Cart)=  0.00193929 RMS(Int)=  0.00000207
 Iteration  2 RMS(Cart)=  0.00000255 RMS(Int)=  0.00000029
 Iteration  3 RMS(Cart)=  0.00000000 RMS(Int)=  0.00000029
 Variable       Old X    -DE/DX   Delta X   Delta X   Delta X     New X
                                 (Linear)    (Quad)   (Total)
    R1        2.07324   0.00000   0.00000   0.00007   0.00007   2.07331
    R2        2.66863   0.00001   0.00000   0.00013   0.00013   2.66876
    R3        2.65808  -0.00016   0.00000  -0.00082  -0.00082   2.65725
    R4        2.88783   0.00009   0.00000   0.00031   0.00031   2.88814
    R5        1.82177  -0.00001   0.00000  -0.00003  -0.00003   1.82174
    R6        2.06352   0.00001   0.00000   0.00004   0.00004   2.06356
    R7        2.06394  -0.00001   0.00000  -0.00001  -0.00001   2.06393
    R8        2.70997  -0.00006   0.00000  -0.00034  -0.00034   2.70963
    R9        2.89445  -0.00003   0.00000   0.00002   0.00002   2.89447
   R10        2.07211   0.00002   0.00000   0.00014   0.00014   2.07226
   R11        2.68825  -0.00004   0.00000  -0.00029  -0.00029   2.68796
   R12        2.86110   0.00012   0.00000   0.00034   0.00034   2.86144
   R13        1.82051   0.00000   0.00000   0.00003   0.00003   1.82053
   R14        2.07692   0.00000   0.00000   0.00003   0.00003   2.07694
   R15        2.68123   0.00002   0.00000   0.00002   0.00002   2.68125
   R16        2.86936   0.00006   0.00000   0.00027   0.00027   2.86963
   R17        1.82346  -0.00004   0.00000  -0.00010  -0.00010   1.82336
   R18        2.07554  -0.00002   0.00000  -0.00008  -0.00008   2.07546
   R19        2.67945   0.00002   0.00000   0.00009   0.00009   2.67954
   R20        1.82361  -0.00001   0.00000  -0.00001  -0.00001   1.82360
    A1        1.91145  -0.00002   0.00000  -0.00035  -0.00035   1.91109
    A2        1.85376   0.00001   0.00000   0.00048   0.00048   1.85424
    A3        1.89499   0.00002   0.00000   0.00005   0.00005   1.89504
    A4        1.93040   0.00004   0.00000   0.00028   0.00028   1.93068
    A5        1.84917   0.00000   0.00000  -0.00024  -0.00024   1.84893
    A6        2.02278  -0.00005   0.00000  -0.00025  -0.00025   2.02253
    A7        1.89568   0.00000   0.00000   0.00011   0.00011   1.89580
    A8        1.88812   0.00000   0.00000  -0.00015  -0.00015   1.88797
    A9        1.86037  -0.00001   0.00000   0.00005   0.00005   1.86042
   A10        1.87209  -0.00001   0.00000  -0.00004  -0.00004   1.87204
   A11        1.88350  -0.00004   0.00000  -0.00029  -0.00029   1.88322
   A12        1.92363  -0.00001   0.00000  -0.00019  -0.00019   1.92344
   A13        2.03087   0.00006   0.00000   0.00058   0.00058   2.03145
   A14        2.17679   0.00006   0.00000   0.00024   0.00024   2.17704
   A15        1.89080  -0.00002   0.00000  -0.00033  -0.00033   1.89048
   A16        1.94044  -0.00003   0.00000  -0.00034  -0.00034   1.94011
   A17        1.92844   0.00002   0.00000   0.00022   0.00022   1.92867
   A18        1.91765   0.00001   0.00000   0.00018   0.00018   1.91783
   A19        1.89890   0.00000   0.00000   0.00005   0.00005   1.89895
   A20        1.88731   0.00002   0.00000   0.00022   0.00022   1.88754
   A21        1.89970  -0.00001   0.00000  -0.00020  -0.00020   1.89950
   A22        1.92205  -0.00001   0.00000  -0.00012  -0.00012   1.92193
   A23        1.95267   0.00005   0.00000   0.00034   0.00034   1.95301
   A24        1.87381  -0.00003   0.00000   0.00027   0.00027   1.87408
   A25        1.92094  -0.00001   0.00000   0.00004   0.00004   1.92098
   A26        1.91858  -0.00001   0.00000  -0.00026  -0.00026   1.91832
   A27        1.87453   0.00000   0.00000  -0.00028  -0.00028   1.87426
   A28        1.88372  -0.00001   0.00000   0.00014   0.00014   1.88386
   A29        1.94039  -0.00005   0.00000   0.00039   0.00039   1.94078
   A30        1.92504   0.00001   0.00000   0.00000   0.00001   1.92505
   A31        1.86229   0.00001   0.00000  -0.00006  -0.00006   1.86223
   A32        1.86800   0.00001   0.00000  -0.00025  -0.00025   1.86774
   A33        1.95890   0.00003   0.00000   0.00002   0.00002   1.95893
   A34        1.90975  -0.00001   0.00000  -0.00011  -0.00011   1.90964
   A35        1.87837   0.00001   0.00000   0.00003   0.00003   1.87840
    D1        1.01556   0.00000   0.00000  -0.00178  -0.00178   1.01378
    D2       -1.02170  -0.00002   0.00000  -0.00232  -0.00232  -1.02402
    D3        3.05626   0.00001   0.00000  -0.00203  -0.00203   3.05423
    D4        2.15785   0.00001   0.00000  -0.00207  -0.00207   2.15577
    D5       -2.05272   0.00001   0.00000  -0.00206  -0.00206  -2.05478
    D6        0.05195   0.00001   0.00000  -0.00234  -0.00234   0.04961
    D7        2.69686  -0.00001   0.00000   0.00148   0.00148   2.69834
    D8        0.58801   0.00001   0.00000   0.00168   0.00168   0.58969
    D9       -1.50771  -0.00001   0.00000   0.00147   0.00147  -1.50624
   D10        0.64512   0.00001   0.00000   0.00199   0.00199   0.64712
   D11       -1.46372   0.00003   0.00000   0.00219   0.00219  -1.46153
   D12        2.72374   0.00001   0.00000   0.00198   0.00198   2.72572
   D13       -1.50278  -0.00001   0.00000   0.00197   0.00197  -1.50080
   D14        2.67156   0.00001   0.00000   0.00217   0.00217   2.67373
   D15        0.57583  -0.00001   0.00000   0.00196   0.00196   0.57780
   D16       -2.20875  -0.00002   0.00000   0.00000   0.00000  -2.20875
   D17        2.04970   0.00000   0.00000   0.00029   0.00029   2.04999
   D18       -0.12217   0.00000   0.00000   0.00035   0.00035  -0.12182
   D19        1.64081   0.00001   0.00000   0.00228   0.00228   1.64309
   D20       -2.57307   0.00000   0.00000   0.00221   0.00221  -2.57085
   D21       -0.50036   0.00000   0.00000   0.00205   0.00205  -0.49832
   D22       -2.59062   0.00001   0.00000   0.00197   0.00197  -2.58865
   D23       -0.52132  -0.00001   0.00000   0.00191   0.00191  -0.51941
   D24        1.55139  -0.00001   0.00000   0.00174   0.00174   1.55313
   D25       -0.43944  -0.00001   0.00000   0.00188   0.00188  -0.43756
   D26        1.62987  -0.00002   0.00000   0.00181   0.00181   1.63168
   D27       -2.58061  -0.00002   0.00000   0.00165   0.00165  -2.57897
   D28        1.21226  -0.00003   0.00000  -0.00345  -0.00345   1.20881
   D29       -0.88073   0.00001   0.00000  -0.00294  -0.00294  -0.88367
   D30       -2.95099  -0.00001   0.00000  -0.00324  -0.00324  -2.95423
   D31        0.97726  -0.00001   0.00000   0.00011   0.00011   0.97737
   D32        3.11951   0.00001   0.00000   0.00031   0.00031   3.11982
   D33       -1.11123   0.00002   0.00000   0.00034   0.00034  -1.11089
   D34        3.05095  -0.00002   0.00000  -0.00012  -0.00012   3.05083
   D35       -1.08998  -0.00001   0.00000   0.00008   0.00008  -1.08990
   D36        0.96246   0.00001   0.00000   0.00010   0.00010   0.96256
   D37       -1.15008   0.00000   0.00000   0.00025   0.00025  -1.14984
   D38        0.99217   0.00002   0.00000   0.00045   0.00045   0.99262
   D39        3.04461   0.00004   0.00000   0.00047   0.00047   3.04509
   D40       -0.86678  -0.00002   0.00000  -0.00450  -0.00450  -0.87128
   D41        1.27610  -0.00001   0.00000  -0.00439  -0.00439   1.27172
   D42       -2.91879  -0.00002   0.00000  -0.00485  -0.00485  -2.92364
   D43        1.03809  -0.00005   0.00000  -0.00245  -0.00245   1.03564
   D44       -1.06522  -0.00004   0.00000  -0.00253  -0.00253  -1.06775
   D45        3.12252  -0.00005   0.00000  -0.00224  -0.00224   3.12028
   D46       -1.05260  -0.00001   0.00000  -0.00232  -0.00232  -1.05492
   D47        3.12726   0.00000   0.00000  -0.00239  -0.00239   3.12487
   D48        1.03182  -0.00001   0.00000  -0.00211  -0.00211   1.02971
   D49        3.14079   0.00000   0.00000  -0.00205  -0.00205   3.13874
   D50        1.03747   0.00001   0.00000  -0.00213  -0.00213   1.03534
   D51       -1.05797   0.00000   0.00000  -0.00184  -0.00184  -1.05981
   D52        3.08841  -0.00002   0.00000  -0.00072  -0.00072   3.08768
   D53        0.95887   0.00001   0.00000  -0.00119  -0.00119   0.95768
   D54       -1.11213  -0.00001   0.00000  -0.00081  -0.00081  -1.11295
         Item               Value     Threshold  Converged?
 Maximum Force            0.000163     0.000015     NO 
 RMS     Force            0.000031     0.000010     NO 
 Maximum Displacement     0.008137     0.000060     NO 
 RMS     Displacement     0.001939     0.000040     NO 
 Predicted change in Energy=-5.664479D-07
 GradGradGradGradGradGradGradGradGradGradGradGradGradGradGradGradGradGrad

                          Input orientation:                          
 ---------------------------------------------------------------------
 Center     Atomic      Atomic             Coordinates (Angstroms)
 Number     Number       Type             X           Y           Z
 ---------------------------------------------------------------------
      1          6           0        4.792563   -0.416931    1.209277
      2          1           0        4.647027   -0.359116    0.123364
      3          8           0        5.602995    0.658760    1.634171
      4          1           0        5.176597    1.484881    1.379130
      5          6           0        2.944619   -1.302907    2.669097
      6          1           0        1.978194   -1.584385    2.245736
      7          1           0        2.766713   -0.818047    3.631452
      8          8           0        3.511779   -0.328713    1.782943
      9          6           0        5.580302   -1.687238    1.528021
     10          1           0        6.108931   -1.535979    2.476802
     11          8           0        6.513313   -1.985220    0.496547
     12          1           0        7.211894   -1.321922    0.507955
     13          6           0        4.644800   -2.868966    1.673591
     14          1           0        4.036014   -2.983269    0.765698
     15          8           0        5.348750   -4.071240    1.942191
     16          1           0        6.057786   -4.151870    1.292757
     17          6           0        3.747127   -2.592470    2.866784
     18          1           0        4.399349   -2.504313    3.746026
     19          8           0        2.804702   -3.629995    3.081160
     20          1           0        3.294265   -4.457985    3.158644
 ---------------------------------------------------------------------
                    Distance matrix (angstroms):
                    1          2          3          4          5
     1  C    0.000000
     2  H    1.097147   0.000000
     3  O    1.412248   2.057300   0.000000
     4  H    1.947619   2.292971   0.964021   0.000000
     5  C    2.516133   3.204636   3.462105   3.797038   0.000000
     6  H    3.218364   3.623316   4.306378   4.516766   1.091989
     7  H    3.183063   4.006605   3.770224   4.022930   1.092184
     8  O    1.406159   2.010949   2.317417   2.494756   1.433873
     9  C    1.528336   2.146618   2.348507   3.201169   2.897687
    10  H    2.142828   3.010123   2.404761   3.346599   3.178706
    11  O    2.434850   2.503298   3.018857   3.821958   4.233332
    12  H    2.676570   2.766486   2.789268   3.574846   4.783360
    13  C    2.499979   2.950009   3.655754   4.396077   2.516782
    14  H    2.712051   2.769857   4.058824   4.652052   2.763637
    15  O    3.768353   4.192900   4.746832   5.587231   3.737902
    16  H    3.944303   4.212208   4.844126   5.705866   4.438774
    17  C    2.928009   3.650212   3.941329   4.569605   1.531690
    18  H    3.308606   4.217451   3.989201   4.703188   2.172416
    19  O    4.216553   4.779264   5.321432   5.889375   2.367427
    20  H    4.730227   5.276705   5.816814   6.482861   3.211919
                    6          7          8          9         10
     6  H    0.000000
     7  H    1.768967   0.000000
     8  O    2.035380   2.052208   0.000000
     9  C    3.674354   3.618867   2.487843   0.000000
    10  H    4.137477   3.608194   2.946885   1.096591   0.000000
    11  O    4.877257   5.022642   3.661698   1.422406   2.070447
    12  H    5.520905   5.456167   4.037686   1.958592   2.266872
    13  C    3.014678   3.400984   2.783627   1.514211   2.136744
    14  H    2.895171   3.809443   2.890723   2.155379   3.052787
    15  O    4.199671   4.483724   4.172089   2.430765   2.700227
    16  H    4.913575   5.235936   4.619411   2.521458   2.871839
    17  C    2.128629   2.166680   2.520852   2.443821   2.616557
    18  H    2.993180   2.349919   3.061815   2.642312   2.339075
    19  O    2.359146   2.865539   3.617152   3.726996   3.958292
    20  H    3.289836   3.708234   4.357838   3.944862   4.114045
                   11         12         13         14         15
    11  O    0.000000
    12  H    0.963385   0.000000
    13  C    2.378608   3.215902   0.000000
    14  H    2.684316   3.593427   1.099071   0.000000
    15  O    2.792412   3.617608   1.418857   2.071495   0.000000
    16  H    2.352834   3.155390   1.946126   2.393946   0.964882
    17  C    3.693042   4.379838   1.518544   2.156558   2.367875
    18  H    3.911191   4.448996   2.118538   3.040357   2.571079
    19  O    4.810332   5.601065   2.438519   2.701064   2.822079
    20  H    4.854235   5.675285   2.560138   2.907089   2.418727
                   16         17         18         19         20
    16  H    0.000000
    17  C    3.201318   0.000000
    18  H    3.388715   1.098285   0.000000
    19  O    3.748772   1.417949   2.062064   0.000000
    20  H    3.348476   1.941755   2.320143   0.965009   0.000000
 Symmetry turned off by external request.
 Stoichiometry    C5H10O5
 Framework group  C1[X(C5H10O5)]
 Deg. of freedom    54
 Full point group                 C1      NOp   1
 Rotational constants (GHZ):      1.8085185      1.2141438      0.7777409
 Standard basis: 6-311+G(2df,p) (5D, 7F)
 Integral buffers will be    131072 words long.
 Raffenetti 2 integral format.
 Two-electron integral symmetry is turned off.
   400 basis functions,   600 primitive gaussians,   450 cartesian basis functions
    40 alpha electrons       40 beta electrons
       nuclear repulsion energy       614.8895072364 Hartrees.
 NAtoms=   20 NActive=   20 NUniq=   20 SFac= 1.00D+00 NAtFMM=   50 NAOKFM=F Big=F
 One-electron integrals computed using PRISM.
 NBasis=   400 RedAO= T  NBF=   400
 NBsUse=   400 1.00D-06 NBFU=   400
 Initial guess read from the read-write file.
 B after Tr=     0.000000    0.000000    0.000000
         Rot=    1.000000    0.000000    0.000000    0.000000 Ang=   0.00 deg.
 Requested convergence on RMS density matrix=1.00D-08 within  64 cycles.
 Requested convergence on MAX density matrix=1.00D-06.
 Requested convergence on             energy=1.00D-06.
 No special actions if energy rises.
 SCF Done:  E(RB3LYP) =  -572.847519582     A.U. after    7 cycles
             Convg  =    0.6984D-08             -V/T =  2.0036
 QCSCF skips out because SCF is already converged.
 Calling FoFJK, ICntrl=      2127 FMM=F ISym2X=0 I1Cent= 0 IOpClX= 0 NMat=1 NMatS=1 NMatT=0.
 -------------------------------------------------------------------
 Center     Atomic                   Forces (Hartrees/Bohr)
 Number     Number              X              Y              Z
 -------------------------------------------------------------------
      1        6          -0.000000622   -0.000000579    0.000000022
      2        1          -0.000000502    0.000000762    0.000000611
      3        8          -0.000000170    0.000000143    0.000001636
      4        1          -0.000000751    0.000000446    0.000001512
      5        6           0.000000694   -0.000001409    0.000000041
      6        1          -0.000000692   -0.000000473   -0.000000447
      7        1          -0.000001472   -0.000001499   -0.000000136
      8        8           0.000000176    0.000000723    0.000001550
      9        6          -0.000003069    0.000001610    0.000002132
     10        1          -0.000000889    0.000000835   -0.000000161
     11        8          -0.000000084    0.000001646    0.000000887
     12        1           0.000002280    0.000000785    0.000000233
     13        6           0.000003923    0.000000937   -0.000002553
     14        1           0.000001047    0.000000403   -0.000000662
     15        8           0.000001128    0.000000981   -0.000001097
     16        1           0.000000154   -0.000000066   -0.000000612
     17        6          -0.000001316   -0.000000679   -0.000000512
     18        1          -0.000000625   -0.000002459    0.000000100
     19        8           0.000000339   -0.000001490   -0.000001616
     20        1           0.000000451   -0.000000617   -0.000000927
 -------------------------------------------------------------------
 Cartesian Forces:  Max     0.000003923 RMS     0.000001222

 GradGradGradGradGradGradGradGradGradGradGradGradGradGradGradGradGradGrad
 Berny optimization.
 Internal  Forces:  Max     0.000003329 RMS     0.000000636
 Search for a saddle point.
 Step number   2 out of a maximum of  119
 All quantities printed in internal units (Hartrees-Bohrs-Radians)
 Swaping is turned off.
 Update second derivatives using D2CorX and points    1    2
 ITU=  0  0
     Eigenvalues ---   -0.00333   0.00072   0.00364   0.00388   0.00413
     Eigenvalues ---    0.00454   0.00868   0.02382   0.02590   0.04479
     Eigenvalues ---    0.04761   0.05094   0.05182   0.05337   0.05709
     Eigenvalues ---    0.06029   0.06300   0.06465   0.06814   0.06924
     Eigenvalues ---    0.08403   0.09652   0.10245   0.11629   0.12781
     Eigenvalues ---    0.14478   0.15334   0.15803   0.16477   0.17334
     Eigenvalues ---    0.18034   0.19621   0.19960   0.20640   0.24812
     Eigenvalues ---    0.25786   0.27060   0.27746   0.30373   0.30929
     Eigenvalues ---    0.31003   0.31213   0.31704   0.31940   0.32773
     Eigenvalues ---    0.34667   0.36667   0.37291   0.37950   0.39400
     Eigenvalues ---    0.52203   0.52240   0.52521   0.52712
 Eigenvectors required to have negative eigenvalues:
                          D18       D6        D17       D16       D5
   1                   -0.37544   0.34721  -0.34256  -0.34143   0.32411
                          D4        D25       D27       D26       D22
   1                    0.32015   0.18266   0.17078   0.16849   0.13794
 RFO step:  Lambda0=2.048009852D-10 Lambda= 0.00000000D+00.
 Linear search not attempted -- option 19 set.
 Iteration  1 RMS(Cart)=  0.00022258 RMS(Int)=  0.00000002
 Iteration  2 RMS(Cart)=  0.00000003 RMS(Int)=  0.00000000
 Variable       Old X    -DE/DX   Delta X   Delta X   Delta X     New X
                                 (Linear)    (Quad)   (Total)
    R1        2.07331   0.00000   0.00000   0.00000   0.00000   2.07331
    R2        2.66876   0.00000   0.00000   0.00000   0.00000   2.66876
    R3        2.65725   0.00000   0.00000   0.00000   0.00000   2.65725
    R4        2.88814   0.00000   0.00000  -0.00003  -0.00003   2.88811
    R5        1.82174   0.00000   0.00000   0.00000   0.00000   1.82174
    R6        2.06356   0.00000   0.00000   0.00000   0.00000   2.06356
    R7        2.06393   0.00000   0.00000   0.00000   0.00000   2.06393
    R8        2.70963   0.00000   0.00000   0.00001   0.00001   2.70963
    R9        2.89447   0.00000   0.00000   0.00002   0.00002   2.89450
   R10        2.07226   0.00000   0.00000   0.00000   0.00000   2.07226
   R11        2.68796   0.00000   0.00000   0.00000   0.00000   2.68796
   R12        2.86144   0.00000   0.00000   0.00000   0.00000   2.86144
   R13        1.82053   0.00000   0.00000   0.00000   0.00000   1.82054
   R14        2.07694   0.00000   0.00000   0.00000   0.00000   2.07694
   R15        2.68125   0.00000   0.00000   0.00000   0.00000   2.68125
   R16        2.86963   0.00000   0.00000   0.00001   0.00001   2.86964
   R17        1.82336   0.00000   0.00000   0.00000   0.00000   1.82336
   R18        2.07546   0.00000   0.00000   0.00000   0.00000   2.07546
   R19        2.67954   0.00000   0.00000   0.00001   0.00001   2.67954
   R20        1.82360   0.00000   0.00000   0.00000   0.00000   1.82360
    A1        1.91109   0.00000   0.00000   0.00000   0.00000   1.91109
    A2        1.85424   0.00000   0.00000   0.00002   0.00002   1.85426
    A3        1.89504   0.00000   0.00000   0.00001   0.00001   1.89505
    A4        1.93068   0.00000   0.00000   0.00000   0.00000   1.93068
    A5        1.84893   0.00000   0.00000   0.00000   0.00000   1.84893
    A6        2.02253   0.00000   0.00000  -0.00003  -0.00003   2.02250
    A7        1.89580   0.00000   0.00000   0.00001   0.00001   1.89580
    A8        1.88797   0.00000   0.00000  -0.00001  -0.00001   1.88796
    A9        1.86042   0.00000   0.00000  -0.00002  -0.00002   1.86040
   A10        1.87204   0.00000   0.00000   0.00000   0.00000   1.87204
   A11        1.88322   0.00000   0.00000   0.00000   0.00000   1.88322
   A12        1.92344   0.00000   0.00000   0.00000   0.00000   1.92344
   A13        2.03145   0.00000   0.00000   0.00003   0.00003   2.03149
   A14        2.17704   0.00000   0.00000  -0.00001  -0.00001   2.17703
   A15        1.89048   0.00000   0.00000   0.00001   0.00001   1.89048
   A16        1.94011   0.00000   0.00000   0.00000   0.00000   1.94010
   A17        1.92867   0.00000   0.00000  -0.00003  -0.00003   1.92864
   A18        1.91783   0.00000   0.00000   0.00001   0.00001   1.91783
   A19        1.89895   0.00000   0.00000   0.00002   0.00002   1.89898
   A20        1.88754   0.00000   0.00000   0.00000   0.00000   1.88753
   A21        1.89950   0.00000   0.00000   0.00001   0.00001   1.89952
   A22        1.92193   0.00000   0.00000  -0.00001  -0.00001   1.92192
   A23        1.95301   0.00000   0.00000   0.00002   0.00002   1.95302
   A24        1.87408   0.00000   0.00000   0.00001   0.00001   1.87409
   A25        1.92098   0.00000   0.00000   0.00000   0.00000   1.92098
   A26        1.91832   0.00000   0.00000   0.00000   0.00000   1.91832
   A27        1.87426   0.00000   0.00000  -0.00002  -0.00001   1.87424
   A28        1.88386   0.00000   0.00000   0.00000   0.00000   1.88387
   A29        1.94078   0.00000   0.00000   0.00004   0.00004   1.94083
   A30        1.92505   0.00000   0.00000   0.00000   0.00000   1.92504
   A31        1.86223   0.00000   0.00000   0.00000   0.00000   1.86223
   A32        1.86774   0.00000   0.00000  -0.00002  -0.00002   1.86772
   A33        1.95893   0.00000   0.00000   0.00000   0.00000   1.95893
   A34        1.90964   0.00000   0.00000  -0.00002  -0.00002   1.90963
   A35        1.87840   0.00000   0.00000   0.00000   0.00000   1.87840
    D1        1.01378   0.00000   0.00000  -0.00009  -0.00009   1.01369
    D2       -1.02402   0.00000   0.00000  -0.00012  -0.00012  -1.02413
    D3        3.05423   0.00000   0.00000  -0.00008  -0.00008   3.05415
    D4        2.15577   0.00000   0.00000  -0.00015  -0.00015   2.15563
    D5       -2.05478   0.00000   0.00000  -0.00014  -0.00014  -2.05491
    D6        0.04961   0.00000   0.00000  -0.00015  -0.00015   0.04946
    D7        2.69834   0.00000   0.00000   0.00027   0.00027   2.69861
    D8        0.58969   0.00000   0.00000   0.00026   0.00026   0.58995
    D9       -1.50624   0.00000   0.00000   0.00029   0.00029  -1.50596
   D10        0.64712   0.00000   0.00000   0.00026   0.00026   0.64738
   D11       -1.46153   0.00000   0.00000   0.00025   0.00025  -1.46128
   D12        2.72572   0.00000   0.00000   0.00028   0.00028   2.72600
   D13       -1.50080   0.00000   0.00000   0.00028   0.00028  -1.50052
   D14        2.67373   0.00000   0.00000   0.00027   0.00027   2.67400
   D15        0.57780   0.00000   0.00000   0.00030   0.00030   0.57809
   D16       -2.20875   0.00000   0.00000  -0.00019  -0.00019  -2.20894
   D17        2.04999   0.00000   0.00000  -0.00017  -0.00017   2.04982
   D18       -0.12182   0.00000   0.00000  -0.00019  -0.00019  -0.12201
   D19        1.64309   0.00000   0.00000   0.00035   0.00035   1.64344
   D20       -2.57085   0.00000   0.00000   0.00034   0.00034  -2.57051
   D21       -0.49832   0.00000   0.00000   0.00032   0.00032  -0.49799
   D22       -2.58865   0.00000   0.00000   0.00034   0.00034  -2.58832
   D23       -0.51941   0.00000   0.00000   0.00033   0.00033  -0.51908
   D24        1.55313   0.00000   0.00000   0.00031   0.00031   1.55344
   D25       -0.43756   0.00000   0.00000   0.00036   0.00036  -0.43721
   D26        1.63168   0.00000   0.00000   0.00035   0.00035   1.63203
   D27       -2.57897   0.00000   0.00000   0.00033   0.00033  -2.57864
   D28        1.20881   0.00000   0.00000   0.00001   0.00001   1.20882
   D29       -0.88367   0.00000   0.00000   0.00000   0.00000  -0.88367
   D30       -2.95423   0.00000   0.00000  -0.00003  -0.00003  -2.95425
   D31        0.97737   0.00000   0.00000  -0.00012  -0.00012   0.97724
   D32        3.11982   0.00000   0.00000  -0.00012  -0.00012   3.11970
   D33       -1.11089   0.00000   0.00000  -0.00012  -0.00012  -1.11102
   D34        3.05083   0.00000   0.00000  -0.00012  -0.00012   3.05070
   D35       -1.08990   0.00000   0.00000  -0.00012  -0.00012  -1.09002
   D36        0.96256   0.00000   0.00000  -0.00012  -0.00012   0.96244
   D37       -1.14984   0.00000   0.00000  -0.00010  -0.00010  -1.14994
   D38        0.99262   0.00000   0.00000  -0.00010  -0.00010   0.99252
   D39        3.04509   0.00000   0.00000  -0.00010  -0.00010   3.04499
   D40       -0.87128   0.00000   0.00000  -0.00005  -0.00005  -0.87133
   D41        1.27172   0.00000   0.00000  -0.00006  -0.00006   1.27166
   D42       -2.92364   0.00000   0.00000  -0.00007  -0.00007  -2.92371
   D43        1.03564   0.00000   0.00000  -0.00022  -0.00022   1.03543
   D44       -1.06775   0.00000   0.00000  -0.00022  -0.00022  -1.06797
   D45        3.12028   0.00000   0.00000  -0.00019  -0.00019   3.12009
   D46       -1.05492   0.00000   0.00000  -0.00021  -0.00021  -1.05513
   D47        3.12487   0.00000   0.00000  -0.00022  -0.00022   3.12465
   D48        1.02971   0.00000   0.00000  -0.00018  -0.00018   1.02953
   D49        3.13874   0.00000   0.00000  -0.00020  -0.00020   3.13853
   D50        1.03534   0.00000   0.00000  -0.00021  -0.00021   1.03514
   D51       -1.05981   0.00000   0.00000  -0.00017  -0.00017  -1.05998
   D52        3.08768   0.00000   0.00000   0.00024   0.00024   3.08792
   D53        0.95768   0.00000   0.00000   0.00019   0.00019   0.95787
   D54       -1.11295   0.00000   0.00000   0.00023   0.00023  -1.11272
         Item               Value     Threshold  Converged?
 Maximum Force            0.000003     0.000015     YES
 RMS     Force            0.000001     0.000010     YES
 Maximum Displacement     0.000937     0.000060     NO 
 RMS     Displacement     0.000223     0.000040     NO 
 Predicted change in Energy=-1.227924D-09
 GradGradGradGradGradGradGradGradGradGradGradGradGradGradGradGradGradGrad

                          Input orientation:                          
 ---------------------------------------------------------------------
 Center     Atomic      Atomic             Coordinates (Angstroms)
 Number     Number       Type             X           Y           Z
 ---------------------------------------------------------------------
      1          6           0        4.792511   -0.416964    1.209217
      2          1           0        4.646863   -0.359340    0.123307
      3          8           0        5.602956    0.658820    1.633843
      4          1           0        5.176555    1.484887    1.378634
      5          6           0        2.944722   -1.302866    2.669272
      6          1           0        1.978163   -1.584188    2.246117
      7          1           0        2.767093   -0.818021    3.631686
      8          8           0        3.511794   -0.328704    1.783022
      9          6           0        5.580300   -1.687185    1.528111
     10          1           0        6.108798   -1.535851    2.476953
     11          8           0        6.513454   -1.985143    0.496761
     12          1           0        7.211997   -1.321803    0.508218
     13          6           0        4.644840   -2.868956    1.673581
     14          1           0        4.036109   -2.983233    0.765648
     15          8           0        5.348806   -4.071222    1.942164
     16          1           0        6.057850   -4.151833    1.292737
     17          6           0        3.747087   -2.592566    2.866742
     18          1           0        4.399256   -2.504658    3.746046
     19          8           0        2.804539   -3.630037    3.080862
     20          1           0        3.294025   -4.458064    3.158423
 ---------------------------------------------------------------------
                    Distance matrix (angstroms):
                    1          2          3          4          5
     1  C    0.000000
     2  H    1.097148   0.000000
     3  O    1.412246   2.057299   0.000000
     4  H    1.947622   2.292945   0.964021   0.000000
     5  C    2.516129   3.204600   3.462157   3.797156   0.000000
     6  H    3.218404   3.623332   4.306400   4.516798   1.091988
     7  H    3.183005   4.006575   3.770219   4.023075   1.092185
     8  O    1.406158   2.010964   2.317416   2.494810   1.433876
     9  C    1.528321   2.146614   2.348495   3.201155   2.897623
    10  H    2.142820   3.010164   2.404848   3.346676   3.178466
    11  O    2.434835   2.503371   3.018692   3.821794   4.233338
    12  H    2.676573   2.766659   2.789070   3.574655   4.783319
    13  C    2.499941   2.949835   3.655785   4.396096   2.516831
    14  H    2.711942   2.769555   4.058733   4.651932   2.763791
    15  O    3.768325   4.192736   4.746888   5.587270   3.737927
    16  H    3.944274   4.212060   4.844136   5.705845   4.438808
    17  C    2.928061   3.650114   3.941547   4.569843   1.531701
    18  H    3.308870   4.217575   3.989723   4.703755   2.172422
    19  O    4.216506   4.778990   5.321587   5.889524   2.367442
    20  H    4.730260   5.276518   5.817045   6.483073   3.211939
                    6          7          8          9         10
     6  H    0.000000
     7  H    1.768961   0.000000
     8  O    2.035367   2.052211   0.000000
     9  C    3.674443   3.618647   2.487804   0.000000
    10  H    4.137362   3.607725   2.946723   1.096592   0.000000
    11  O    4.877486   5.022464   3.661723   1.422405   2.070451
    12  H    5.521064   5.455915   4.037682   1.958601   2.266888
    13  C    3.014895   3.400947   2.783640   1.514209   2.136761
    14  H    2.895558   3.809556   2.890757   2.155369   3.052789
    15  O    4.199876   4.483642   4.172095   2.430774   2.700314
    16  H    4.913814   5.235843   4.619425   2.521496   2.871989
    17  C    2.128636   2.166688   2.520889   2.443833   2.616536
    18  H    2.993116   2.349847   3.061998   2.642417   2.339171
    19  O    2.359066   2.865701   3.617098   3.727004   3.958340
    20  H    3.289826   3.708308   4.357839   3.944965   4.114205
                   11         12         13         14         15
    11  O    0.000000
    12  H    0.963386   0.000000
    13  C    2.378602   3.215905   0.000000
    14  H    2.684347   3.593450   1.099070   0.000000
    15  O    2.792368   3.617593   1.418855   2.071493   0.000000
    16  H    2.352806   3.155407   1.946127   2.393927   0.964881
    17  C    3.693041   4.379848   1.518547   2.156560   2.367863
    18  H    3.911212   4.449066   2.118522   3.040343   2.570945
    19  O    4.810333   5.601082   2.438523   2.700988   2.822157
    20  H    4.854329   5.675405   2.560220   2.907093   2.418897
                   16         17         18         19         20
    16  H    0.000000
    17  C    3.201316   0.000000
    18  H    3.388634   1.098284   0.000000
    19  O    3.748825   1.417953   2.062055   0.000000
    20  H    3.348625   1.941759   2.320050   0.965008   0.000000
 Symmetry turned off by external request.
 Stoichiometry    C5H10O5
 Framework group  C1[X(C5H10O5)]
 Deg. of freedom    54
 Full point group                 C1      NOp   1
 Rotational constants (GHZ):      1.8085718      1.2141274      0.7777238
 Standard basis: 6-311+G(2df,p) (5D, 7F)
 Integral buffers will be    131072 words long.
 Raffenetti 2 integral format.
 Two-electron integral symmetry is turned off.
   400 basis functions,   600 primitive gaussians,   450 cartesian basis functions
    40 alpha electrons       40 beta electrons
       nuclear repulsion energy       614.8889374747 Hartrees.
 NAtoms=   20 NActive=   20 NUniq=   20 SFac= 1.00D+00 NAtFMM=   50 NAOKFM=F Big=F
 One-electron integrals computed using PRISM.
 NBasis=   400 RedAO= T  NBF=   400
 NBsUse=   400 1.00D-06 NBFU=   400
 Initial guess read from the read-write file.
 B after Tr=     0.000000    0.000000    0.000000
         Rot=    1.000000    0.000000    0.000000    0.000000 Ang=   0.00 deg.
 Requested convergence on RMS density matrix=1.00D-08 within  64 cycles.
 Requested convergence on MAX density matrix=1.00D-06.
 Requested convergence on             energy=1.00D-06.
 No special actions if energy rises.
 SCF Done:  E(RB3LYP) =  -572.847519583     A.U. after    5 cycles
             Convg  =    0.9374D-08             -V/T =  2.0036
 QCSCF skips out because SCF is already converged.
 Calling FoFJK, ICntrl=      2127 FMM=F ISym2X=0 I1Cent= 0 IOpClX= 0 NMat=1 NMatS=1 NMatT=0.
 -------------------------------------------------------------------
 Center     Atomic                   Forces (Hartrees/Bohr)
 Number     Number              X              Y              Z
 -------------------------------------------------------------------
      1        6          -0.000000331    0.000000427    0.000000802
      2        1           0.000000089    0.000000929    0.000000748
      3        8          -0.000000675    0.000000452    0.000001571
      4        1          -0.000000852    0.000000462    0.000001865
      5        6          -0.000000383   -0.000000938   -0.000000103
      6        1          -0.000000178   -0.000000883   -0.000000605
      7        1          -0.000000887   -0.000001392    0.000000070
      8        8          -0.000000278   -0.000000295    0.000000441
      9        6           0.000000180    0.000000260    0.000000387
     10        1          -0.000000235    0.000000205    0.000000507
     11        8           0.000000407    0.000001323    0.000000489
     12        1           0.000000136    0.000001542    0.000000984
     13        6           0.000000690    0.000000315   -0.000000723
     14        1           0.000000668    0.000000446   -0.000000734
     15        8           0.000000613    0.000000141   -0.000000921
     16        1           0.000000925    0.000000831   -0.000000732
     17        6          -0.000000207   -0.000000710   -0.000000681
     18        1          -0.000000301   -0.000000970   -0.000000315
     19        8           0.000000194   -0.000001113   -0.000001339
     20        1           0.000000427   -0.000001031   -0.000001711
 -------------------------------------------------------------------
 Cartesian Forces:  Max     0.000001865 RMS     0.000000778

 GradGradGradGradGradGradGradGradGradGradGradGradGradGradGradGradGradGrad
 Berny optimization.
 Internal  Forces:  Max     0.000000285 RMS     0.000000052
 Search for a saddle point.
 Step number   3 out of a maximum of  119
 All quantities printed in internal units (Hartrees-Bohrs-Radians)
 Swaping is turned off.
 Update second derivatives using D2CorX and points    1    2    3
 ITU=  0  0  0
     Eigenvalues ---   -0.00332   0.00070   0.00366   0.00388   0.00413
     Eigenvalues ---    0.00454   0.00869   0.02382   0.02590   0.04479
     Eigenvalues ---    0.04761   0.05094   0.05182   0.05337   0.05709
     Eigenvalues ---    0.06029   0.06300   0.06465   0.06814   0.06924
     Eigenvalues ---    0.08403   0.09652   0.10245   0.11629   0.12781
     Eigenvalues ---    0.14478   0.15334   0.15803   0.16477   0.17334
     Eigenvalues ---    0.18034   0.19621   0.19960   0.20640   0.24812
     Eigenvalues ---    0.25786   0.27060   0.27746   0.30373   0.30929
     Eigenvalues ---    0.31003   0.31213   0.31704   0.31940   0.32773
     Eigenvalues ---    0.34667   0.36667   0.37291   0.37950   0.39400
     Eigenvalues ---    0.52203   0.52240   0.52521   0.52712
 Eigenvectors required to have negative eigenvalues:
                          D18       D6        D17       D16       D5
   1                   -0.37517   0.34777  -0.34226  -0.34115   0.32463
                          D4        D25       D27       D26       D22
   1                    0.32069   0.18194   0.17005   0.16778   0.13720
 RFO step:  Lambda0=2.606647537D-13 Lambda= 0.00000000D+00.
 Linear search not attempted -- option 19 set.
 Iteration  1 RMS(Cart)=  0.00000305 RMS(Int)=  0.00000000
 Iteration  2 RMS(Cart)=  0.00000000 RMS(Int)=  0.00000000
 Variable       Old X    -DE/DX   Delta X   Delta X   Delta X     New X
                                 (Linear)    (Quad)   (Total)
    R1        2.07331   0.00000   0.00000   0.00000   0.00000   2.07331
    R2        2.66876   0.00000   0.00000   0.00000   0.00000   2.66876
    R3        2.65725   0.00000   0.00000   0.00000   0.00000   2.65725
    R4        2.88811   0.00000   0.00000   0.00000   0.00000   2.88811
    R5        1.82174   0.00000   0.00000   0.00000   0.00000   1.82174
    R6        2.06356   0.00000   0.00000   0.00000   0.00000   2.06356
    R7        2.06393   0.00000   0.00000   0.00000   0.00000   2.06393
    R8        2.70963   0.00000   0.00000   0.00000   0.00000   2.70963
    R9        2.89450   0.00000   0.00000   0.00000   0.00000   2.89450
   R10        2.07226   0.00000   0.00000   0.00000   0.00000   2.07226
   R11        2.68796   0.00000   0.00000   0.00000   0.00000   2.68796
   R12        2.86144   0.00000   0.00000   0.00000   0.00000   2.86144
   R13        1.82054   0.00000   0.00000   0.00000   0.00000   1.82054
   R14        2.07694   0.00000   0.00000   0.00000   0.00000   2.07694
   R15        2.68125   0.00000   0.00000   0.00000   0.00000   2.68125
   R16        2.86964   0.00000   0.00000   0.00000   0.00000   2.86964
   R17        1.82336   0.00000   0.00000   0.00000   0.00000   1.82336
   R18        2.07546   0.00000   0.00000   0.00000   0.00000   2.07546
   R19        2.67954   0.00000   0.00000   0.00000   0.00000   2.67954
   R20        1.82360   0.00000   0.00000   0.00000   0.00000   1.82360
    A1        1.91109   0.00000   0.00000   0.00000   0.00000   1.91109
    A2        1.85426   0.00000   0.00000   0.00000   0.00000   1.85426
    A3        1.89505   0.00000   0.00000   0.00000   0.00000   1.89505
    A4        1.93068   0.00000   0.00000   0.00000   0.00000   1.93068
    A5        1.84893   0.00000   0.00000   0.00000   0.00000   1.84893
    A6        2.02250   0.00000   0.00000   0.00000   0.00000   2.02250
    A7        1.89580   0.00000   0.00000   0.00000   0.00000   1.89580
    A8        1.88796   0.00000   0.00000   0.00000   0.00000   1.88796
    A9        1.86040   0.00000   0.00000   0.00000   0.00000   1.86040
   A10        1.87204   0.00000   0.00000   0.00000   0.00000   1.87204
   A11        1.88322   0.00000   0.00000   0.00000   0.00000   1.88322
[...]
 10748666,0.26828990,-0.15615864,0.04909890,0.05365413,-0.01764922,0.00
 036601,0.01738269,-0.05139779,-0.02713957,0.00716763,0.00021615,0.0024
 4502,-0.00078844,-0.09778694,-0.02667129,0.04330673,-0.01346300,-0.026
 91902,0.02941873,-0.00491352,-0.01258466,0.01605138,0.35980651,0.01729
 593,-0.08737612,0.01967905,-0.00716663,0.00747049,0.00570529,-0.037461
 49,0.00037876,0.01239190,0.00151133,0.00346434,-0.00066587,-0.00675029
 ,-0.12519239,0.05810192,-0.01008495,-0.01018916,0.01207122,0.00065958,
 0.00508246,0.00830311,0.03249718,0.23371164,0.05172362,0.00086880,-0.0
 9518331,0.03877745,-0.00188005,-0.01432934,0.01300180,0.01199952,0.018
 90057,-0.00006442,-0.00140875,-0.00060383,0.03546781,0.06883496,-0.093
 14518,0.00797315,0.00842337,0.00315802,0.01928656,0.02841282,-0.021214
 62,-0.17279809,-0.12317266,0.20379735,-0.09598945,0.04650240,-0.020996
 13,-0.00115903,0.00699934,-0.00139364,0.00851160,-0.02498590,0.0032482
 0,-0.00191077,-0.00515938,-0.00280996,-0.00044562,0.00162678,-0.000730
 62,0.00032048,-0.00006764,0.00000065,0.00041912,-0.00023933,-0.0001331
 0,-0.02352390,0.01912843,0.00049871,0.52142121,0.02768907,-0.13719432,
 0.02851901,0.00438125,-0.00221379,0.00126116,0.00893555,-0.04678976,0.
 00549961,-0.00229431,-0.00447201,-0.00115693,0.00139124,0.00398189,-0.
 00275594,-0.00031795,-0.00040388,0.00032257,-0.00000805,-0.00059023,0.
 00026823,0.00003167,0.00418840,0.00037284,0.03499965,0.50051237,-0.021
 95346,0.03156088,-0.09179159,-0.01545019,0.02790327,-0.00996788,0.0048
 8972,-0.01202486,0.00342045,-0.00151929,-0.00215272,0.00004656,0.00039
 948,-0.00343853,0.00283702,-0.00012571,0.00038214,-0.00029714,0.000272
 54,0.00014659,-0.00024654,0.01566611,-0.01309491,0.00259792,0.05014257
 ,0.01316058,0.55528062,-0.00740382,-0.00257611,-0.01748618,-0.00099604
 ,0.00236026,-0.00007783,0.00094013,-0.00172673,0.00166230,0.00021504,-
 0.00030946,0.00021812,-0.00011551,0.00035702,-0.00027541,0.00009164,-0
 .00011010,0.00008042,-0.00014628,0.00003858,0.00009510,0.00011049,0.00
 028835,0.00129029,-0.11554094,-0.01719057,-0.11007367,0.12757166,0.015
 47350,0.00090829,0.02594736,0.00174214,-0.00403825,0.00095929,-0.00017
 882,0.00204371,-0.00022042,-0.00008134,0.00051092,-0.00004899,-0.00028
 805,0.00003375,0.00018613,0.00008043,-0.00001505,0.00003060,0.00006790
 ,0.00010435,-0.00007762,0.00004117,-0.00055996,-0.00146156,-0.01627882
 ,-0.05559320,-0.02641879,0.01719642,0.05910489,-0.00703776,-0.00097686
 ,-0.00768849,-0.00026382,0.00064399,0.00015978,0.00097281,-0.00106980,
 0.00127929,0.00036221,-0.00031895,0.00050865,0.00001317,0.00030225,-0.
 00042549,0.00002724,-0.00004166,-0.00000037,-0.00011384,-0.00002531,0.
 00007905,-0.00141339,0.00076176,0.00098501,-0.10676623,-0.02456771,-0.
 22166272,0.10881206,0.03162307,0.25412799,-0.02455935,0.00523007,0.024
 15591,0.00115823,-0.00214121,0.00092406,0.00169418,0.00241712,-0.00002
 790,0.00051078,0.00017844,-0.00009329,0.00203571,0.00090474,-0.0018437
 8,-0.00018955,-0.00009005,0.00008188,-0.00017471,0.00000363,0.00029037
 ,-0.00521592,0.00666085,0.00074952,-0.12882919,0.02088438,0.07717606,0
 .00639307,-0.00036270,0.00316614,0.45047775,0.02109538,-0.00371313,-0.
 02475116,-0.00143327,0.00233755,-0.00171214,0.00089692,-0.00063468,-0.
 00026964,-0.00013365,0.00047634,0.00045153,-0.00172605,-0.00305159,0.0
 0232467,0.00020028,0.00030957,-0.00020829,0.00006938,0.00045271,-0.000
 33791,0.00779459,-0.00403952,-0.00194401,-0.00564313,-0.08801748,-0.02
 216846,0.00706082,0.00130490,-0.00704273,0.22960468,0.35017661,0.00891
 696,-0.00088560,-0.00583441,0.00017338,-0.00093152,0.00331669,-0.00062
 729,-0.00046800,0.00210073,-0.00008575,-0.00006144,0.00004066,-0.00105
 505,0.00079539,0.00014325,0.00014040,-0.00004130,0.00006011,-0.0000911
 8,-0.00016750,0.00008284,-0.00065689,-0.00225263,0.00242231,0.05113434
 ,-0.04673977,-0.14989353,0.03248491,-0.00979270,-0.03181995,-0.1197072
 1,0.06824911,0.21158914,-0.00257489,-0.00050712,0.00045862,-0.00053545
 ,0.00033469,-0.00028244,0.00076220,-0.00062971,-0.00062790,0.00010237,
 0.00030574,-0.00005106,-0.00041703,-0.00059721,0.00045398,0.00006497,0
 .00007669,-0.00004625,0.00004703,0.00008471,-0.00011684,0.00145323,0.0
 0020210,-0.00081889,-0.02138795,-0.01966305,-0.00118618,0.00242327,0.0
 0008064,-0.00053131,-0.27378719,-0.23221050,0.01572101,0.29545827,0.00
 346655,0.00299529,-0.00142606,0.00022927,-0.00018372,0.00017772,-0.001
 49959,-0.00036594,0.00038683,-0.00024242,-0.00020291,0.00004469,-0.000
 07532,0.00031096,-0.00011354,-0.00002357,-0.00006985,0.00005437,-0.000
 02268,-0.00004000,0.00004351,-0.00044166,-0.00112212,0.00041783,0.0104
 9828,0.00554178,-0.00273926,0.00065562,0.00022625,-0.00102008,-0.26358
 546,-0.26086445,-0.01206250,0.25060533,0.25324401,0.00088322,0.0001868
 0,0.00147173,-0.00052567,0.00002542,-0.00021688,-0.00041903,0.00030304
 ,-0.00074247,-0.00048515,-0.00010053,0.00013749,-0.00000753,0.00004135
 ,-0.00007889,-0.00003001,-0.00001443,-0.00000511,0.00004394,-0.0000028
 2,-0.00001793,-0.00017925,-0.00002360,-0.00014715,0.02730670,0.0226333
 9,-0.00351988,-0.00016814,0.00087947,0.00038020,-0.01441388,-0.0393019
 6,-0.02615038,-0.01674113,0.01656707,0.03338401,0.02168671,0.00667081,
 -0.00341425,-0.00096360,0.00136200,-0.00073062,-0.00265948,0.00593470,
 -0.00096527,0.00079269,0.00164620,0.00079598,-0.01059183,0.01343341,0.
 01095401,0.00029166,-0.00059126,0.00020946,-0.00061168,-0.00008750,0.0
 0000967,-0.00271414,-0.00317443,0.00280194,-0.12158427,-0.04192677,-0.
 00562048,-0.01365898,-0.01690257,-0.00082793,-0.02972499,-0.01958987,0
 .01192303,-0.00252138,0.00097054,0.00390909,0.52519392,-0.00831163,-0.
 03003257,0.00000745,-0.00042287,0.00190870,-0.00022022,0.00173821,-0.0
 0134210,0.00145074,-0.00041863,-0.00025212,-0.00036964,0.01766643,-0.0
 0900833,-0.02386265,-0.00038230,0.00021911,0.00025571,0.00233231,-0.00
 313801,0.00159633,-0.00381097,0.00248822,0.00016050,-0.06723071,-0.133
 42575,0.00418069,-0.00291545,-0.00419983,0.00037301,0.00426583,0.00401
 077,0.00211524,0.00276899,-0.00117339,-0.00221440,0.00776681,0.4843879
 8,0.00206634,0.00866207,0.00054537,0.00025396,0.00046245,-0.00043820,0
 .00013623,-0.00017538,-0.00019791,0.00035855,-0.00007508,0.00058033,-0
 .00414084,-0.00826422,0.00977179,-0.00129819,0.00187831,0.00019678,-0.
 00154207,0.00277148,0.00016219,0.00234506,-0.00033217,-0.00248168,-0.0
 0770926,-0.00873216,-0.08120355,-0.01840890,-0.02219276,0.00268770,0.0
 3208330,0.02525854,-0.00876279,0.00467506,-0.00004980,-0.00510470,0.03
 572042,0.02016939,0.56905850,-0.00080858,0.00080243,-0.00040164,0.0001
 8830,-0.00049543,0.00040475,0.00025450,-0.00015057,0.00038244,0.000067
 39,-0.00014085,0.00005696,0.00091598,-0.00046196,-0.00070043,-0.000146
 24,0.00001991,-0.00012483,0.00002834,-0.00026327,-0.00006472,0.0005654
 3,0.00033785,0.00017850,-0.01164105,-0.00682610,-0.02001574,-0.0017213
 4,-0.00270059,0.00086400,0.00199020,0.00127313,0.00027987,0.00038976,0
 .00022797,0.00006692,-0.12006832,-0.02214251,-0.10386898,0.13241743,-0
 .00112108,0.00058948,-0.00135365,0.00013422,-0.00036115,0.00045216,0.0
 0028069,0.00018220,0.00041632,0.00011007,-0.00004451,0.00010026,-0.000
 48995,0.00043280,-0.00062181,0.00018299,-0.00002362,0.00003581,-0.0000
 2156,0.00010635,0.00007199,0.00050586,-0.00006834,0.00055694,-0.014317
 00,-0.00425063,-0.02301198,-0.00318054,-0.00332443,0.00073140,0.001591
 77,0.00144696,0.00081986,0.00031867,0.00011929,-0.00010694,-0.02155940
 ,-0.05176089,-0.02958544,0.01399256,0.06695367,-0.00121134,-0.00026020
 ,-0.00008782,0.00004960,-0.00024893,0.00026722,0.00023893,0.00003931,0
 .00025409,-0.00004550,-0.00008663,-0.00006999,-0.00034270,0.00094331,-
 0.00026929,0.00064127,-0.00039237,0.00005878,0.00017564,0.00014442,0.0
 0027964,0.00045059,-0.00016130,0.00089592,0.00283363,0.00002822,0.0024
 4285,0.00101957,0.00086696,0.00036434,-0.00072336,-0.00037797,0.001236
 44,-0.00013214,0.00003167,0.00017707,-0.10405280,-0.02874206,-0.213768
 60,0.12039387,0.02642506,0.23281026,-0.00517482,-0.00270890,0.00156290
 ,0.00036196,-0.00038919,0.00008263,0.00140653,-0.00013984,0.00014059,-
 0.00024656,-0.00028605,-0.00001068,-0.00275323,-0.00295902,0.00650701,
 0.00004062,0.00044304,-0.00011429,-0.00081041,0.00167826,-0.00037922,0
 .00305383,0.00071664,-0.00158500,0.00744368,-0.00818970,0.00582429,0.0
 0215721,0.00150823,0.00073475,0.00249025,-0.00436426,0.00059941,0.0007
 7619,-0.00060298,-0.00024841,-0.11157433,0.07519042,-0.01512297,-0.012
 90307,0.02655682,-0.00708262,0.40969371,-0.01029837,0.00203451,0.00135
 049,0.00074243,-0.00094636,0.00020151,0.00062191,-0.00489264,0.0003347
 6,-0.00024245,-0.00044932,-0.00049735,-0.00040093,0.00189982,-0.000990
 99,0.00040815,-0.00049910,-0.00004096,0.00042479,-0.00042344,-0.000081
 79,0.00099743,0.00056602,-0.00087929,0.02514288,-0.04916973,0.01072199
 ,0.00110477,0.00297695,-0.00058938,0.00087696,0.00262216,-0.00020751,0
 .00098829,0.00056046,-0.00053814,0.04388522,-0.16746391,0.04594589,0.0
 1252241,-0.01046206,0.00790882,-0.13823602,0.27304446,0.00235311,-0.00
 030926,0.00066429,-0.00001732,-0.00055201,0.00034184,-0.00056954,0.000
 93678,0.00022522,0.00013359,0.00011121,0.00000864,0.00402239,0.0017757
 1,-0.00597385,0.00045461,-0.00073224,0.00000991,0.00073071,-0.00116382
 ,0.00036995,-0.00158108,0.00010606,0.00155142,-0.00211383,0.00731581,-
 0.00112215,0.00151503,0.00069963,0.00081502,-0.00031238,0.00155717,0.0
 0128025,-0.00091168,0.00060056,0.00023327,0.00493301,0.02025235,-0.091
 06778,-0.01554965,0.02870850,-0.00043757,-0.24469697,-0.03796521,0.328
 26691,-0.00031970,0.00034189,0.00035228,0.00005609,0.00000161,-0.00000
 575,-0.00015962,-0.00041815,-0.00002010,0.00001271,-0.00001971,-0.0000
 6280,0.00020509,0.00015054,0.00081502,-0.00002906,-0.00004343,0.000028
 18,-0.00012960,0.00012401,-0.00008095,-0.00045222,-0.00017459,0.000095
 82,0.00332375,-0.00160887,-0.00031319,-0.00010729,-0.00006064,-0.00004
 878,-0.00136779,0.00080194,-0.00016872,-0.00001067,-0.00028280,-0.0001
 2735,-0.01715889,0.00480498,0.01436821,0.00004754,-0.00058425,0.000424
 11,-0.27406040,0.04856261,0.23415047,0.29124295,0.00167160,-0.00026301
 ,-0.00020880,-0.00006520,0.00006031,0.00005618,-0.00041592,0.00061369,
 0.00009523,0.00004321,0.00001012,-0.00001563,0.00137133,0.00095668,-0.
 00224323,0.00004444,-0.00021645,0.00005234,0.00023646,-0.00044603,0.00
 018640,-0.00147212,0.00011775,0.00077554,0.00302746,-0.00173175,-0.003
 38091,-0.00028814,-0.00025323,0.00012632,-0.00024292,0.00215348,0.0000
 2046,-0.00099848,0.00081332,0.00016716,0.03035936,-0.00855996,-0.02639
 046,0.00018970,0.00043225,0.00058772,0.01752659,-0.03405031,0.00804391
 ,-0.05361605,0.04670041,0.00066086,-0.00029181,-0.00035251,-0.00013053
 ,0.00020325,-0.00010920,-0.00003125,0.00030350,-0.00014180,-0.00000675
 ,0.00006638,0.00005824,0.00025859,0.00025068,0.00045777,0.00004339,-0.
 00015925,-0.00000771,-0.00006259,0.00015843,-0.00000008,0.00010860,-0.
 00006886,-0.00002446,-0.00062775,0.00163669,0.00147743,0.00006156,-0.0
 0052597,-0.00042006,-0.00096126,0.00020005,-0.00126747,0.00032710,-0.0
 0081809,-0.00011245,-0.00858101,0.00228618,0.00532009,-0.00120432,0.00
 109399,-0.00013490,0.25751631,-0.02377760,-0.24585111,-0.24703165,0.01
 924498,0.24099974,0.00835086,-0.00299823,-0.00168915,-0.00073537,0.000
 20750,0.00024849,-0.00175073,0.00076215,-0.00018840,0.00034327,0.00026
 872,-0.00006743,-0.11953226,0.05042182,-0.00477104,-0.01956742,0.02521
 958,-0.00302755,-0.00407426,0.00589970,-0.00367422,0.00537916,-0.01897
 583,0.00678410,-0.01938440,-0.00621062,0.01739836,-0.00075690,0.000454
 00,0.00114442,0.00039173,-0.00157323,-0.00089755,0.00012662,-0.0000787
 9,0.00071281,-0.09709253,0.01983036,0.03341698,0.01071221,-0.00413360,
 -0.01482105,-0.02338845,0.01385204,0.01970537,-0.00177910,0.00321239,0
 .00034096,0.52887391,-0.00205722,0.00004084,0.00104196,0.00054366,0.00
 027557,-0.00055018,0.00114424,0.00079377,-0.00033090,-0.00013085,-0.00
 020392,0.00017101,0.05649379,-0.13263179,0.00315521,-0.00189259,0.0041
 1659,-0.00087489,0.01156030,-0.01092295,0.00349013,0.00521932,-0.01816
 973,0.00716197,-0.01516089,0.00882065,0.01977271,-0.00098139,0.0004225
 3,0.00063804,-0.00510125,-0.00557639,0.00107257,-0.00138888,0.00016559
 ,0.00147269,0.00176557,-0.07631929,-0.00824261,0.00283074,-0.00035179,
 -0.00676774,0.03278631,-0.01934262,-0.02794755,0.00183904,-0.00758014,
 0.00040114,-0.01434910,0.49079201,-0.00204949,0.00295135,0.00143847,0.
 00006082,-0.00000057,0.00010111,0.00024432,-0.00132605,-0.00022753,-0.
 00015395,-0.00018727,-0.00007704,-0.00420839,0.00366296,-0.08564044,-0
 .01178563,0.01217093,-0.00091625,0.01693114,-0.02467759,0.00512929,-0.
 00854523,0.01933512,-0.00702085,0.00848944,0.00923616,-0.00365813,-0.0
 0257170,-0.00161215,-0.00038137,-0.00349487,-0.00189431,0.00074049,-0.
 00064347,-0.00016061,0.00108562,0.04330811,-0.02785720,-0.15250398,0.0
 1724071,-0.00456818,-0.02451211,-0.00213271,-0.00099729,0.00566930,-0.
 00195971,0.00266192,-0.00024252,0.05203434,0.00026316,0.54100795,-0.00
 095425,-0.00005798,0.00047116,0.00007893,-0.00006199,-0.00009353,0.000
 26205,0.00006835,0.00004072,-0.00005042,-0.00003302,0.00001191,-0.0094
 4127,0.00103728,-0.01356272,-0.00114845,0.00176616,-0.00018250,0.00070
 265,-0.00011983,0.00031504,0.00045294,0.00168520,-0.00096920,0.0007956
 9,0.00021150,0.00081760,0.00006028,-0.00008836,0.00050409,-0.00013842,
 0.00004113,0.00024511,0.00000019,0.00003782,-0.00017669,0.00843088,0.0
 0216252,0.01630328,-0.00183018,0.00073284,0.00275939,0.00145185,-0.001
 08168,-0.00058791,0.00016086,-0.00025404,-0.00000732,-0.12357320,-0.00
 421938,-0.11085285,0.14784010,0.00086370,-0.00023860,-0.00021338,-0.00
 006502,0.00001133,0.00004541,-0.00028614,-0.00014395,-0.00004952,0.000
 02910,0.00003958,-0.00000506,0.01942907,0.00162143,0.02109444,0.002669
 66,-0.00375198,0.00099887,-0.00078998,0.00102226,0.00015365,-0.0009212
 8,-0.00098497,0.00017583,-0.00045811,-0.00018765,0.00111907,-0.0001305
 6,0.00010180,0.00036440,0.00012229,0.00009500,0.00000393,0.00009109,0.
 00001101,0.00000019,-0.00182039,0.00146386,-0.00818780,0.00050827,0.00
 007559,-0.00067554,-0.00099053,0.00087043,0.00035225,-0.00006796,0.000
 11081,0.00012023,-0.00354030,-0.04920977,-0.00965080,0.01481531,0.0612
 2916,-0.00068677,-0.00012821,-0.00016789,0.00009415,-0.00013517,0.0001
 1594,0.00019551,0.00026781,0.00021497,-0.00000132,-0.00000271,0.000013
 81,-0.00076297,-0.00148260,-0.00154870,0.00071188,0.00037163,0.0007941
 3,0.00029739,0.00040951,0.00147682,0.00043582,0.00088511,-0.00005614,-
 0.00236151,-0.00172275,-0.00114785,0.00120114,0.00076660,0.00075797,0.
 00044128,0.00024855,0.00105933,0.00013117,0.00011764,-0.00012305,-0.01
 552673,-0.00051677,-0.02989614,0.00376826,-0.00096504,-0.00316480,-0.0
 0035028,0.00082947,0.00359240,-0.00012079,0.00015488,0.00033251,-0.110
 22094,-0.01014616,-0.21253887,0.11929402,0.01311782,0.22865769,-0.0031
 6344,0.00167767,0.00073272,0.00024669,-0.00023963,-0.00005638,0.000746
 53,-0.00070684,-0.00002044,-0.00011422,-0.00006381,0.00004290,0.011755
 34,0.00610262,-0.00001852,0.00247624,0.00045961,0.00005324,0.00003597,
 0.00004537,-0.00001260,0.00175762,0.00432018,-0.00321608,-0.00063021,0
 .00540837,0.00401148,0.00050043,0.00033785,0.00039110,-0.00302126,-0.0
 0247484,0.00171287,-0.00031883,0.00017943,0.00054304,-0.02654642,-0.02
 923806,0.00851550,0.00172685,0.00064246,-0.00031681,0.00167135,-0.0002
 3601,-0.00057337,0.00057424,-0.00129817,-0.00033868,-0.15407200,-0.036
 95084,0.00653346,-0.02265182,-0.02860910,0.00402227,0.36162125,0.00410
 398,0.00148464,-0.00208581,-0.00030601,-0.00016239,0.00031771,-0.00138
 509,-0.00096995,0.00011318,0.00030055,0.00033076,-0.00013326,-0.025935
 32,-0.03604963,0.01052885,-0.00256248,0.00172034,0.00060924,0.00044003
 ,-0.00003122,-0.00150949,0.00068631,-0.00890480,0.00268929,0.00144658,
 0.00189149,-0.00030508,0.00039866,0.00026084,0.00014713,-0.00182970,0.
 00012233,0.00096332,0.00010248,0.00004191,0.00010064,-0.00912297,-0.00
 925253,0.00619040,0.00060067,0.00036710,0.00060800,0.00220641,0.003471
 64,-0.00133580,0.00023674,0.00071950,-0.00028313,-0.08340118,-0.154090
 97,0.01822821,-0.01738557,-0.01328663,-0.00145381,-0.10196175,0.586803
 13,0.00024669,-0.00150787,-0.00008683,-0.00006708,0.00003277,0.0000825
 6,0.00002944,0.00078725,0.00029021,-0.00000526,-0.00000184,-0.00002189
 ,0.00384295,0.00697921,0.00003926,0.00140426,-0.00011486,0.00021679,-0
 .00007737,0.00111177,0.00056275,-0.00072694,0.00168224,0.00034908,0.00
 175352,-0.00495403,-0.00394922,0.00080405,0.00052335,0.00031614,0.0027
 8517,0.00213993,-0.00037338,0.00031979,-0.00003999,-0.00069078,0.02582
 315,0.02774546,-0.00306512,-0.00196225,0.00067794,0.00416523,-0.000156
 73,0.00028766,0.00141615,-0.00021532,0.00062886,0.00032121,0.01112383,
 0.01051930,-0.06614958,-0.01449761,-0.01806540,0.01113194,-0.00939910,
 -0.06620919,0.06410995,0.00088307,0.00010578,-0.00035917,-0.00005969,0
 .00002707,0.00003176,-0.00014719,0.00018131,0.00001509,0.00004542,0.00
 002473,0.00000008,-0.00430960,-0.00173342,0.00043804,0.00048708,0.0001
 0349,0.00042852,0.00017347,-0.00000773,-0.00002096,0.00047993,-0.00151
 540,0.00082240,-0.00020877,0.00030332,-0.00034029,-0.00001613,-0.00004
 037,0.00001106,-0.00013353,0.00031053,-0.00004166,-0.00005070,-0.00001
 553,0.00005652,0.00107498,-0.00365372,0.00184832,-0.00018514,0.0003584
 3,-0.00025828,0.00036409,0.00036557,-0.00108456,-0.00004889,0.00096849
 ,-0.00033425,0.01152884,-0.03195057,0.00355567,-0.00044842,-0.00084913
 ,-0.00056161,-0.17259432,0.23336767,-0.02102520,0.16316550,0.00050257,
 -0.00037939,-0.00016338,-0.00002669,0.00004150,-0.00000107,-0.00008812
 ,0.00020889,0.00000626,0.00001281,0.00000282,-0.00000386,-0.00434562,-
 0.00251990,0.00101102,-0.00066404,0.00015979,0.00010920,0.00031191,-0.
 00014803,-0.00020631,0.00027710,-0.00086097,-0.00010390,0.00016911,-0.
 00089639,-0.00021241,-0.00005144,-0.00001523,-0.00005890,0.00061255,0.
 00038887,-0.00042941,0.00003552,-0.00000749,-0.00007438,0.00098053,0.0
 0145006,0.00088934,-0.00012436,-0.00005827,0.00012924,0.00025376,-0.00
 034695,-0.00045403,0.00001307,0.00041257,-0.00004079,0.01513262,-0.031
 02818,0.00442223,0.00074376,0.00115130,-0.00061578,0.18260549,-0.37446
 554,0.03777745,-0.19635054,0.40691056,-0.00076018,0.00039532,0.0003473
 2,0.00003061,-0.00000707,-0.00006504,0.00016287,-0.00030168,-0.0001001
 8,-0.00003271,-0.00001877,0.00002073,0.00034317,0.00134086,0.00014191,
 0.00043383,0.00007353,0.00004001,0.00009411,0.00038253,0.00004703,0.00
 070185,0.00074922,-0.00045104,0.00023427,0.00037505,0.00035731,-0.0001
 8271,-0.00013147,-0.00006269,-0.00027576,-0.00042097,0.00002967,0.0000
 0256,-0.00001196,0.00004027,-0.00066878,0.00318990,0.00016772,0.000256
 25,0.00012281,-0.00050676,-0.00108801,-0.00101508,0.00000789,-0.000079
 00,-0.00056288,-0.00030273,-0.00355233,0.00570016,-0.00130359,0.000168
 03,-0.00069860,0.00049593,-0.01260659,0.03281962,-0.00866447,0.0168185
 1,-0.04198051,0.00976070\\0.00000022,-0.00000064,-0.00000085,-0.000000
 05,-0.00000090,-0.00000070,0.00000070,-0.00000042,-0.00000157,0.000000
 85,-0.00000041,-0.00000185,0.00000048,0.00000103,-0.00000009,0.0000001
 6,0.00000086,0.00000063,0.00000086,0.00000140,0.00000001,0.00000031,0.
 00000032,-0.00000045,-0.00000021,-0.00000026,-0.00000031,0.00000022,-0
 .00000022,-0.00000055,-0.00000046,-0.00000133,-0.00000043,-0.00000012,
 -0.00000153,-0.00000100,-0.00000059,-0.00000021,0.00000063,-0.00000068
 ,-0.00000046,0.00000075,-0.00000061,-0.00000015,0.00000091,-0.00000094
 ,-0.00000083,0.00000075,0.00000023,0.00000069,0.00000067,0.00000032,0.
 00000098,0.00000036,-0.00000028,0.00000107,0.00000135,-0.00000041,0.00
 000102,0.00000173\\\@


 ERROR IS THE FORCE THAT WELDS MEN TOGETHER....
 TRUTH IS COMMUNICATED TO MEN ONLY BY DEEDS OF TRUTH.
           TOLSTOI,MY RELIGION
 Job cpu time:  0 days  5 hours 35 minutes 53.5 seconds.
 File lengths (MBytes):  RWF=    269 Int=      0 D2E=      0 Chk=     13 Scr=      1
 Normal termination of Gaussian 09 at Sun Oct 28 16:51:47 2012.
