'c0861-ib c0862-ib'
 Entering Gaussian System, Link 0=g09
 Initial command:
 /usr/common/usg/g09/b11/g09/l1.exe /global/scratch/sd/hmayes/g09/2191494.cvrsvc09-ib/Gau-24263.inp -scrdir=/global/scratch/sd/hmayes/g09/2191494.cvrsvc09-ib/
 Entering Link 1 = /usr/common/usg/g09/b11/g09/l1.exe PID=     24264.
  
 Copyright (c) 1988,1990,1992,1993,1995,1998,2003,2009,2010,
            Gaussian, Inc.  All Rights Reserved.
  
 This is part of the Gaussian(R) 09 program.  It is based on
 the Gaussian(R) 03 system (copyright 2003, Gaussian, Inc.),
 the Gaussian(R) 98 system (copyright 1998, Gaussian, Inc.),
 the Gaussian(R) 94 system (copyright 1995, Gaussian, Inc.),
 the Gaussian 92(TM) system (copyright 1992, Gaussian, Inc.),
 the Gaussian 90(TM) system (copyright 1990, Gaussian, Inc.),
 the Gaussian 88(TM) system (copyright 1988, Gaussian, Inc.),
 the Gaussian 86(TM) system (copyright 1986, Carnegie Mellon
 University), and the Gaussian 82(TM) system (copyright 1983,
 Carnegie Mellon University). Gaussian is a federally registered
 trademark of Gaussian, Inc.
  
 This software contains proprietary and confidential information,
 including trade secrets, belonging to Gaussian, Inc.
  
 This software is provided under written license and may be
 used, copied, transmitted, or stored only in accord with that
 written license.
  
 The following legend is applicable only to US Government
 contracts under FAR:
  
                    RESTRICTED RIGHTS LEGEND
  
 Use, reproduction and disclosure by the US Government is
 subject to restrictions as set forth in subparagraphs (a)
 and (c) of the Commercial Computer Software - Restricted
 Rights clause in FAR 52.227-19.
  
 Gaussian, Inc.
 340 Quinnipiac St., Bldg. 40, Wallingford CT 06492
  
  
 ---------------------------------------------------------------
 Warning -- This program may not be used in any manner that
 competes with the business of Gaussian, Inc. or will provide
 assistance to any competitor of Gaussian, Inc.  The licensee
 of this program is prohibited from giving any competitor of
 Gaussian, Inc. access to this program.  By using this program,
 the user acknowledges that Gaussian, Inc. is engaged in the
 business of creating and licensing software in the field of
 computational chemistry and represents and warrants to the
 licensee that it is not a competitor of Gaussian, Inc. and that
 it will not use this program in any manner prohibited above.
 ---------------------------------------------------------------
  

 Cite this work as:
 Gaussian 09, Revision B.01,
 M. J. Frisch, G. W. Trucks, H. B. Schlegel, G. E. Scuseria, 
 M. A. Robb, J. R. Cheeseman, G. Scalmani, V. Barone, B. Mennucci, 
 G. A. Petersson, H. Nakatsuji, M. Caricato, X. Li, H. P. Hratchian, 
 A. F. Izmaylov, J. Bloino, G. Zheng, J. L. Sonnenberg, M. Hada, 
 M. Ehara, K. Toyota, R. Fukuda, J. Hasegawa, M. Ishida, T. Nakajima, 
 Y. Honda, O. Kitao, H. Nakai, T. Vreven, J. A. Montgomery, Jr., 
 J. E. Peralta, F. Ogliaro, M. Bearpark, J. J. Heyd, E. Brothers, 
 K. N. Kudin, V. N. Staroverov, T. Keith, R. Kobayashi, J. Normand, 
 K. Raghavachari, A. Rendell, J. C. Burant, S. S. Iyengar, J. Tomasi, 
 M. Cossi, N. Rega, J. M. Millam, M. Klene, J. E. Knox, J. B. Cross, 
 V. Bakken, C. Adamo, J. Jaramillo, R. Gomperts, R. E. Stratmann, 
 O. Yazyev, A. J. Austin, R. Cammi, C. Pomelli, J. W. Ochterski, 
 R. L. Martin, K. Morokuma, V. G. Zakrzewski, G. A. Voth, 
 P. Salvador, J. J. Dannenberg, S. Dapprich, A. D. Daniels, 
 O. Farkas, J. B. Foresman, J. V. Ortiz, J. Cioslowski, 
 and D. J. Fox, Gaussian, Inc., Wallingford CT, 2010.
 
 ******************************************
 Gaussian 09:  EM64L-G09RevB.01 12-Aug-2010
                13-Apr-2012 
 ******************************************
 %chk=/global/u1/h/hmayes/gaussian/glucose/glucNa1cO2Bareactwater.chk
 %mem=16GB
 %nprocshared=8
 Will use up to    8 processors via shared memory.
 %nproclinda=2
 Will use up to    2 processors via Linda.
 ----------------------------------------------------------------------
 # opt m062x/6-31+g(2df,p) nosymm scrf=(cpcm,solvent=water,read) scf=(x
 qc,maxcycle=1000) geom=allcheck guess=read
 ----------------------------------------------------------------------
 1/14=-1,18=20,19=15,26=3,29=7,38=1,40=2/1,3;
 2/9=110,12=2,15=1,40=1/2;
 3/5=1,6=6,7=114,11=2,14=-4,16=1,25=1,30=1,70=2103,71=1,72=1,74=-55,116=-2/1,2,3;
 4/5=1/1;
 5/5=2,7=1000,8=3,13=1,38=6,53=1/2,8;
 6/7=2,8=2,9=2,10=2,28=1/1;
 7/30=1/1,2,3,16;
 1/14=-1,18=20,19=15/3(2);
 2/9=110,15=1/2;
 99//99;
 2/9=110,15=1/2;
 3/5=1,6=6,7=114,11=2,14=-2,16=1,25=1,30=1,70=2105,71=1,72=1,74=-55/1,2,3;
 4/5=5,16=3/1;
 5/5=2,7=1000,8=3,13=1,38=5,53=1/2,8;
 7/30=1/1,2,3,16;
 1/14=-1,18=20,19=15/3(-5);
 2/9=110,15=1/2;
 6/7=2,8=2,9=2,10=2,19=2,28=1/1;
 99/9=1/99;
 ---------------------------------------
 glucNa1cO2Bareact from glucNa1cO2Baircf
 ---------------------------------------
 Redundant internal coordinates taken from checkpoint file:
 /global/u1/h/hmayes/gaussian/glucose/glucNa1cO2Bareactwater.chk
 Charge =  1 Multiplicity = 1
 C,0,-0.1332432615,0.0410930921,-0.3321772687
 C,0,-0.5979250718,1.4924715753,-0.3630177948
 C,0,0.1433672793,2.241260482,-1.456536533
 C,0,1.644267431,2.1003833444,-1.2642143833
 C,0,2.0122083126,0.6187328337,-1.1973807301
 C,0,3.4780592165,0.3855225818,-0.9014219016
 O,0,-0.7197184687,-0.5687636712,0.7626889465
 O,0,-1.9737356439,1.584754536,-0.6428730069
 O,0,-0.1532797665,3.6201155766,-1.4440226281
 O,0,2.3511414015,2.6711380715,-2.340154015
 O,0,1.273756827,-0.0057715014,-0.1544870883
 O,0,3.7354148321,0.8649186202,0.4129014582
 H,0,-0.3953124018,-0.4687464093,-1.2719073162
 H,0,-0.3586693643,1.9430217652,0.6119426462
 H,0,-0.1282865161,1.8029942375,-2.4303142471
 H,0,1.9247056303,2.5792792756,-0.3144113064
 H,0,1.7741134156,0.14973288,-2.1637461773
 H,0,-0.7107536008,-1.5253683247,0.6500628149
 H,0,-2.4650347285,1.2019509154,0.0923240808
 H,0,-1.0975298044,3.7301428005,-1.6022665797
 H,0,2.0068740522,3.5614477424,-2.4782088449
 H,0,4.68442661,0.8691963961,0.5674516656
 H,0,3.6949717259,-0.6863765222,-0.9671718032
 H,0,4.0776884759,0.9226978557,-1.6420131543
 Na,0,2.2020984181,0.0306198467,2.000043167
 Recover connectivity data from disk.

 GradGradGradGradGradGradGradGradGradGradGradGradGradGradGradGradGradGrad
 Berny optimization.
 Initialization pass.
                           ----------------------------
                           !    Initial Parameters    !
                           ! (Angstroms and Degrees)  !
 --------------------------                            --------------------------
 ! Name  Definition              Value          Derivative Info.                !
 --------------------------------------------------------------------------------
 ! R1    R(1,2)                  1.5243         estimate D2E/DX2                !
 ! R2    R(1,7)                  1.3837         estimate D2E/DX2                !
 ! R3    R(1,11)                 1.419          estimate D2E/DX2                !
 ! R4    R(1,13)                 1.1008         estimate D2E/DX2                !
 ! R5    R(2,3)                  1.5185         estimate D2E/DX2                !
 ! R6    R(2,8)                  1.407          estimate D2E/DX2                !
 ! R7    R(2,14)                 1.1004         estimate D2E/DX2                !
 ! R8    R(3,4)                  1.5197         estimate D2E/DX2                !
 ! R9    R(3,9)                  1.4105         estimate D2E/DX2                !
 ! R10   R(3,15)                 1.1019         estimate D2E/DX2                !
 ! R11   R(4,5)                  1.5281         estimate D2E/DX2                !
 ! R12   R(4,10)                 1.4082         estimate D2E/DX2                !
 ! R13   R(4,16)                 1.1001         estimate D2E/DX2                !
 ! R14   R(5,6)                  1.5135         estimate D2E/DX2                !
 ! R15   R(5,11)                 1.4223         estimate D2E/DX2                !
 ! R16   R(5,17)                 1.1002         estimate D2E/DX2                !
 ! R17   R(6,12)                 1.4225         estimate D2E/DX2                !
 ! R18   R(6,23)                 1.0956         estimate D2E/DX2                !
 ! R19   R(6,24)                 1.0939         estimate D2E/DX2                !
 ! R20   R(7,18)                 0.9633         estimate D2E/DX2                !
 ! R21   R(8,13)                 2.6653         estimate D2E/DX2                !
 ! R22   R(8,19)                 0.9635         estimate D2E/DX2                !
 ! R23   R(9,20)                 0.9637         estimate D2E/DX2                !
 ! R24   R(10,21)                0.9645         estimate D2E/DX2                !
 ! R25   R(11,25)                2.3463         estimate D2E/DX2                !
 ! R26   R(12,22)                0.9615         estimate D2E/DX2                !
 ! R27   R(12,25)                2.3593         estimate D2E/DX2                !
 ! A1    A(2,1,7)              107.8465         estimate D2E/DX2                !
 ! A2    A(2,1,11)             109.6499         estimate D2E/DX2                !
 ! A3    A(2,1,13)             110.5586         estimate D2E/DX2                !
 ! A4    A(7,1,11)             107.8565         estimate D2E/DX2                !
 ! A5    A(7,1,13)             111.7436         estimate D2E/DX2                !
 ! A6    A(11,1,13)            109.128          estimate D2E/DX2                !
 ! A7    A(1,2,3)              109.5889         estimate D2E/DX2                !
 ! A8    A(1,2,8)              111.3812         estimate D2E/DX2                !
 ! A9    A(1,2,14)             107.7982         estimate D2E/DX2                !
 ! A10   A(3,2,8)              107.5635         estimate D2E/DX2                !
 ! A11   A(3,2,14)             109.2688         estimate D2E/DX2                !
 ! A12   A(8,2,14)             111.2225         estimate D2E/DX2                !
 ! A13   A(2,3,4)              110.1986         estimate D2E/DX2                !
 ! A14   A(2,3,9)              111.9            estimate D2E/DX2                !
 ! A15   A(2,3,15)             108.658          estimate D2E/DX2                !
 ! A16   A(4,3,9)              107.2904         estimate D2E/DX2                !
 ! A17   A(4,3,15)             108.5695         estimate D2E/DX2                !
 ! A18   A(9,3,15)             110.1711         estimate D2E/DX2                !
 ! A19   A(3,4,5)              109.4641         estimate D2E/DX2                !
 ! A20   A(3,4,10)             111.1915         estimate D2E/DX2                !
 ! A21   A(3,4,16)             108.7044         estimate D2E/DX2                !
 ! A22   A(5,4,10)             107.7902         estimate D2E/DX2                !
 ! A23   A(5,4,16)             108.8419         estimate D2E/DX2                !
 ! A24   A(10,4,16)            110.8104         estimate D2E/DX2                !
 ! A25   A(4,5,6)              113.0263         estimate D2E/DX2                !
 ! A26   A(4,5,11)             109.438          estimate D2E/DX2                !
 ! A27   A(4,5,17)             108.8318         estimate D2E/DX2                !
 ! A28   A(6,5,11)             106.9663         estimate D2E/DX2                !
 ! A29   A(6,5,17)             108.4007         estimate D2E/DX2                !
 ! A30   A(11,5,17)            110.1515         estimate D2E/DX2                !
 ! A31   A(5,6,12)             107.6961         estimate D2E/DX2                !
 ! A32   A(5,6,23)             109.3154         estimate D2E/DX2                !
 ! A33   A(5,6,24)             108.8352         estimate D2E/DX2                !
 ! A34   A(12,6,23)            110.4475         estimate D2E/DX2                !
 ! A35   A(12,6,24)            111.1539         estimate D2E/DX2                !
 ! A36   A(23,6,24)            109.347          estimate D2E/DX2                !
 ! A37   A(1,7,18)             109.9525         estimate D2E/DX2                !
 ! A38   A(2,8,19)             108.7087         estimate D2E/DX2                !
 ! A39   A(3,9,20)             108.4348         estimate D2E/DX2                !
 ! A40   A(4,10,21)            107.7175         estimate D2E/DX2                !
 ! A41   A(1,11,5)             114.1106         estimate D2E/DX2                !
 ! A42   A(1,11,25)            120.4514         estimate D2E/DX2                !
 ! A43   A(5,11,25)            117.4566         estimate D2E/DX2                !
 ! A44   A(6,12,22)            109.1823         estimate D2E/DX2                !
 ! A45   A(6,12,25)            112.6321         estimate D2E/DX2                !
 ! A46   A(22,12,25)           122.337          estimate D2E/DX2                !
 ! A47   A(11,25,12)            69.1997         estimate D2E/DX2                !
 ! D1    D(7,1,2,3)            173.6469         estimate D2E/DX2                !
 ! D2    D(7,1,2,8)            -67.4518         estimate D2E/DX2                !
 ! D3    D(7,1,2,14)            54.8226         estimate D2E/DX2                !
 ! D4    D(11,1,2,3)            56.4523         estimate D2E/DX2                !
 ! D5    D(11,1,2,8)           175.3536         estimate D2E/DX2                !
 ! D6    D(11,1,2,14)          -62.372          estimate D2E/DX2                !
 ! D7    D(13,1,2,3)           -63.914          estimate D2E/DX2                !
 ! D8    D(13,1,2,8)            54.9873         estimate D2E/DX2                !
 ! D9    D(13,1,2,14)          177.2618         estimate D2E/DX2                !
 ! D10   D(2,1,7,18)           160.1348         estimate D2E/DX2                !
 ! D11   D(11,1,7,18)          -81.5144         estimate D2E/DX2                !
 ! D12   D(13,1,7,18)           38.4274         estimate D2E/DX2                !
 ! D13   D(2,1,11,5)           -61.3604         estimate D2E/DX2                !
 ! D14   D(2,1,11,25)           86.7523         estimate D2E/DX2                !
 ! D15   D(7,1,11,5)          -178.5488         estimate D2E/DX2                !
 ! D16   D(7,1,11,25)          -30.4361         estimate D2E/DX2                !
 ! D17   D(13,1,11,5)           59.8719         estimate D2E/DX2                !
 ! D18   D(13,1,11,25)        -152.0154         estimate D2E/DX2                !
 ! D19   D(1,2,3,4)            -54.9586         estimate D2E/DX2                !
 ! D20   D(1,2,3,9)           -174.2478         estimate D2E/DX2                !
 ! D21   D(1,2,3,15)            63.8818         estimate D2E/DX2                !
 ! D22   D(8,2,3,4)           -176.1921         estimate D2E/DX2                !
 ! D23   D(8,2,3,9)             64.5187         estimate D2E/DX2                !
 ! D24   D(8,2,3,15)           -57.3517         estimate D2E/DX2                !
 ! D25   D(14,2,3,4)            62.9526         estimate D2E/DX2                !
 ! D26   D(14,2,3,9)           -56.3366         estimate D2E/DX2                !
 ! D27   D(14,2,3,15)         -178.207          estimate D2E/DX2                !
 ! D28   D(1,2,8,19)            66.2492         estimate D2E/DX2                !
 ! D29   D(3,2,8,19)          -173.6464         estimate D2E/DX2                !
 ! D30   D(14,2,8,19)          -54.0274         estimate D2E/DX2                !
 ! D31   D(2,3,4,5)             55.034          estimate D2E/DX2                !
 ! D32   D(2,3,4,10)           174.0185         estimate D2E/DX2                !
 ! D33   D(2,3,4,16)           -63.7355         estimate D2E/DX2                !
 ! D34   D(9,3,4,5)            177.0908         estimate D2E/DX2                !
 ! D35   D(9,3,4,10)           -63.9247         estimate D2E/DX2                !
 ! D36   D(9,3,4,16)            58.3213         estimate D2E/DX2                !
 ! D37   D(15,3,4,5)           -63.8605         estimate D2E/DX2                !
 ! D38   D(15,3,4,10)           55.124          estimate D2E/DX2                !
 ! D39   D(15,3,4,16)          177.37           estimate D2E/DX2                !
 ! D40   D(2,3,9,20)           -61.374          estimate D2E/DX2                !
 ! D41   D(4,3,9,20)           177.6368         estimate D2E/DX2                !
 ! D42   D(15,3,9,20)           59.6239         estimate D2E/DX2                !
 ! D43   D(3,4,5,6)           -175.6369         estimate D2E/DX2                !
 ! D44   D(3,4,5,11)           -56.5442         estimate D2E/DX2                !
 ! D45   D(3,4,5,17)            63.8765         estimate D2E/DX2                !
 ! D46   D(10,4,5,6)            63.2952         estimate D2E/DX2                !
 ! D47   D(10,4,5,11)         -177.6121         estimate D2E/DX2                !
 ! D48   D(10,4,5,17)          -57.1914         estimate D2E/DX2                !
 ! D49   D(16,4,5,6)           -56.9527         estimate D2E/DX2                !
 ! D50   D(16,4,5,11)           62.14           estimate D2E/DX2                !
 ! D51   D(16,4,5,17)         -177.4393         estimate D2E/DX2                !
 ! D52   D(3,4,10,21)           50.3926         estimate D2E/DX2                !
 ! D53   D(5,4,10,21)          170.3751         estimate D2E/DX2                !
 ! D54   D(16,4,10,21)         -70.6253         estimate D2E/DX2                !
 ! D55   D(4,5,6,12)            65.6367         estimate D2E/DX2                !
 ! D56   D(4,5,6,23)          -174.3365         estimate D2E/DX2                !
 ! D57   D(4,5,6,24)           -54.9651         estimate D2E/DX2                !
 ! D58   D(11,5,6,12)          -54.8752         estimate D2E/DX2                !
 ! D59   D(11,5,6,23)           65.1516         estimate D2E/DX2                !
 ! D60   D(11,5,6,24)         -175.4769         estimate D2E/DX2                !
 ! D61   D(17,5,6,12)         -173.6312         estimate D2E/DX2                !
 ! D62   D(17,5,6,23)          -53.6044         estimate D2E/DX2                !
 ! D63   D(17,5,6,24)           65.767          estimate D2E/DX2                !
 ! D64   D(4,5,11,1)            61.3871         estimate D2E/DX2                !
 ! D65   D(4,5,11,25)          -87.7365         estimate D2E/DX2                !
 ! D66   D(6,5,11,1)          -175.8383         estimate D2E/DX2                !
 ! D67   D(6,5,11,25)           35.0381         estimate D2E/DX2                !
 ! D68   D(17,5,11,1)          -58.225          estimate D2E/DX2                !
 ! D69   D(17,5,11,25)         152.6514         estimate D2E/DX2                !
 ! D70   D(5,6,12,22)         -170.2461         estimate D2E/DX2                !
 ! D71   D(5,6,12,25)           50.4099         estimate D2E/DX2                !
 ! D72   D(23,6,12,22)          70.4458         estimate D2E/DX2                !
 ! D73   D(23,6,12,25)         -68.8982         estimate D2E/DX2                !
 ! D74   D(24,6,12,22)         -51.1136         estimate D2E/DX2                !
 ! D75   D(24,6,12,25)         169.5424         estimate D2E/DX2                !
 ! D76   D(1,11,25,12)        -154.6858         estimate D2E/DX2                !
 ! D77   D(5,11,25,12)          -7.5991         estimate D2E/DX2                !
 ! D78   D(6,12,25,11)         -23.9424         estimate D2E/DX2                !
 ! D79   D(22,12,25,11)       -157.1993         estimate D2E/DX2                !
 --------------------------------------------------------------------------------
 Trust Radius=3.00D-01 FncErr=1.00D-07 GrdErr=1.00D-06
 Number of steps in this run=    150 maximum allowed number of steps=    150.
 GradGradGradGradGradGradGradGradGradGradGradGradGradGradGradGradGradGrad

                          Input orientation:                          
 ---------------------------------------------------------------------
 Center     Atomic      Atomic             Coordinates (Angstroms)
 Number     Number       Type             X           Y           Z
 ---------------------------------------------------------------------
      1          6           0       -0.133243    0.041093   -0.332177
      2          6           0       -0.597925    1.492472   -0.363018
      3          6           0        0.143367    2.241260   -1.456537
      4          6           0        1.644267    2.100383   -1.264214
      5          6           0        2.012208    0.618733   -1.197381
      6          6           0        3.478059    0.385523   -0.901422
      7          8           0       -0.719718   -0.568764    0.762689
      8          8           0       -1.973736    1.584755   -0.642873
      9          8           0       -0.153280    3.620116   -1.444023
     10          8           0        2.351141    2.671138   -2.340154
     11          8           0        1.273757   -0.005772   -0.154487
     12          8           0        3.735415    0.864919    0.412901
     13          1           0       -0.395312   -0.468746   -1.271907
     14          1           0       -0.358669    1.943022    0.611943
     15          1           0       -0.128287    1.802994   -2.430314
     16          1           0        1.924706    2.579279   -0.314411
     17          1           0        1.774113    0.149733   -2.163746
     18          1           0       -0.710754   -1.525368    0.650063
     19          1           0       -2.465035    1.201951    0.092324
     20          1           0       -1.097530    3.730143   -1.602267
     21          1           0        2.006874    3.561448   -2.478209
     22          1           0        4.684427    0.869196    0.567452
     23          1           0        3.694972   -0.686377   -0.967172
     24          1           0        4.077688    0.922698   -1.642013
     25         11           0        2.202098    0.030620    2.000043
 ---------------------------------------------------------------------
                    Distance matrix (angstroms):
                    1          2          3          4          5
     1  C    0.000000
     2  C    1.524264   0.000000
     3  C    2.486249   1.518546   0.000000
     4  C    2.875572   2.491814   1.519716   0.000000
     5  C    2.384367   2.876174   2.488438   1.528115   0.000000
     6  C    3.672081   4.257800   3.856434   2.536761   1.513505
     7  O    1.383695   2.351753   3.683221   4.101355   3.565872
     8  O    2.422155   1.407015   2.361180   3.707005   4.138650
     9  O    3.747800   2.427581   1.410460   2.360740   3.709241
    10  O    4.137786   3.741031   2.416576   1.408218   2.373431
    11  O    1.418950   2.406535   2.832361   2.409286   1.422302
    12  O    4.024965   4.446764   4.276906   2.951608   2.371299
    13  H    1.100777   2.171062   2.769188   3.280301   2.642787
    14  H    2.135301   1.100358   2.149324   2.748906   3.263197
    15  H    2.739799   2.142592   1.101869   2.142470   2.739401
    16  H    3.267699   2.747213   2.142866   1.100051   2.151984
    17  H    2.646593   3.266824   2.744807   2.151989   1.100233
    18  H    1.937038   3.185345   4.399406   4.728283   3.927434
    19  H    2.639137   1.943666   3.206695   4.419699   4.695656
    20  H    4.018963   2.606245   1.943665   3.207467   4.417610
    21  H    4.645261   3.942039   2.501873   1.933902   3.209380
    22  H    4.970416   5.399767   5.157549   3.756779   3.212182
    23  H    3.948121   4.851942   4.628653   3.472701   2.141962
    24  H    4.497204   4.880762   4.153540   2.729691   2.134549
    25  Na   3.300482   3.944769   4.590561   3.905185   3.256602
                    6          7          8          9         10
     6  C    0.000000
     7  O    4.615329   0.000000
     8  O    5.588119   2.861084   0.000000
     9  O    4.893223   4.768348   2.845803   0.000000
    10  O    2.926420   5.436431   4.771326   2.824134   0.000000
    11  O    2.360079   2.265417   3.648904   4.104436   3.619909
    12  O    1.422497   4.693188   5.850404   5.114804   3.571828
    13  H    3.983722   2.062723   2.665327   4.099634   4.306162
    14  H    4.408692   2.542075   2.076381   2.661169   4.072849
    15  H    4.165629   4.021231   2.578421   2.067686   2.628567
    16  H    2.751374   4.250094   4.036683   2.584064   2.072177
    17  H    2.133657   3.911452   4.291703   4.034402   2.592598
    18  H    4.858473   0.963254   3.597175   5.583187   5.993936
    19  H    6.080662   2.575063   0.963550   3.681317   5.592049
    20  H    5.710839   4.921011   2.508159   0.963719   3.682296
    21  H    3.838899   5.915773   4.808433   2.395673   0.964485
    22  H    1.961339   5.595590   6.805001   5.917515   4.140699
    23  H    1.095601   4.742967   6.115345   5.795024   3.868315
    24  H    1.093887   5.569754   6.168982   5.021589   2.554488
    25  Na   3.189441   3.229136   5.180534   5.503987   5.082505
                   11         12         13         14         15
    11  O    0.000000
    12  O    2.672039   0.000000
    13  H    2.061253   4.656195   0.000000
    14  H    2.655188   4.238331   3.060532   0.000000
    15  H    3.227499   4.887949   2.563984   3.054179   0.000000
    16  H    2.670543   2.597438   3.948385   2.544947   3.048678
    17  H    2.076454   3.316219   2.425758   3.933077   2.534454
    18  H    2.625787   5.053527   2.215834   3.486423   4.572307
    19  H    3.936759   6.217872   2.989332   2.292589   3.490752
    20  H    4.655762   5.968900   4.270002   2.939803   2.310627
    21  H    4.319976   4.314816   4.844391   4.214752   2.766471
    22  H    3.594361   0.961523   5.565706   5.156345   5.746372
    23  H    2.643097   2.076717   4.107390   5.083241   4.791144
    24  H    3.307087   2.084026   4.699025   5.079631   4.368817
    25  Na   2.346304   2.359265   4.207323   3.484485   5.310374
                   16         17         18         19         20
    16  H    0.000000
    17  H    3.057027   0.000000
    18  H    4.972322   4.110724   0.000000
    19  H    4.618689   4.916034   3.290417   0.000000
    20  H    3.480943   4.623952   5.730880   3.336684   0.000000
    21  H    2.377693   3.434074   6.561043   5.672110   3.230024
    22  H    3.364242   4.055489   5.903282   7.172954   6.806152
    23  H    3.771531   2.412585   4.767575   6.529471   6.548058
    24  H    3.023595   2.485184   5.846009   6.774447   5.887802
    25  Na   3.453883   4.187422   3.567668   5.176248   6.127859
                   21         22         23         24         25
    21  H    0.000000
    22  H    4.867602   0.000000
    23  H    4.814241   2.398728   0.000000
    24  H    3.456949   2.291883   1.786338   0.000000
    25  Na   5.706102   2.986215   3.398105   4.192638   0.000000
 Symmetry turned off by external request.
 Stoichiometry    C6H12NaO6(1+)
 Framework group  C1[X(C6H12NaO6)]
 Deg. of freedom    69
 Full point group                 C1      NOp   1
 Rotational constants (GHZ):      0.8828547      0.6924020      0.4518985
 Standard basis: 6-31+G(2df,p) (6D, 7F)
 Integral buffers will be    131072 words long.
 Raffenetti 2 integral format.
 Two-electron integral symmetry is turned off.
   480 basis functions,   732 primitive gaussians,   519 cartesian basis functions
    53 alpha electrons       53 beta electrons
       nuclear repulsion energy       988.7719773705 Hartrees.
 NAtoms=   25 NActive=   25 NUniq=   25 SFac= 1.00D+00 NAtFMM=   50 NAOKFM=F Big=F
 Using the following non-standard input for PCM:
 Radii=uff
 --- end of non-standard input.
 ------------------------------------------------------------------------------
 Polarizable Continuum Model (PCM)
 =================================
 Model                : C-PCM.
 Atomic radii         : UFF (Universal Force Field).
 Polarization charges : Total charges.
 Charge compensation  : None.
 Solution method      : Matrix inversion.
 Cavity type          : Scaled VdW (van der Waals Surface) (Alpha=1.100).
 Cavity algorithm     : GePol (No added spheres)
                        Default sphere list used, NSphG=   25.
                        Lebedev-Laikov grids with approx.  5.0 points / Ang**2.
                        Smoothing algorithm: Karplus/York (Gamma=1.0000).
                        Polarization charges: spherical gaussians, with
                                              point-specific exponents (IZeta= 3).
                        Self-potential: point-specific (ISelfS= 7).
                        Self-field    : sphere-specific E.n sum rule (ISelfD= 2).
 1st derivatives      : Analytical E(r).r(x)/FMM algorithm (CHGder, D1EAlg=3).
                        Cavity 1st derivative terms included.
 Solvent              : Water, Eps=  78.355300 Eps(inf)=   1.777849
 ------------------------------------------------------------------------------
 One-electron integrals computed using PRISM.
 NBasis=   480 RedAO= T  NBF=   480
 NBsUse=   480 1.00D-06 NBFU=   480
 Initial guess read from the checkpoint file:  /global/u1/h/hmayes/gaussian/glucose/glucNa1cO2Bareactwater.chk
 B after Tr=     0.000000    0.000000    0.000000
         Rot=    1.000000    0.000000    0.000000    0.000000 Ang=   0.00 deg.
 Requested convergence on RMS density matrix=1.00D-08 within 128 cycles.
 Requested convergence on MAX density matrix=1.00D-06.
 Requested convergence on             energy=1.00D-06.
 No special actions if energy rises.
 Error on total polarization charges =  0.01047
 SCF Done:  E(RM062X) =  -849.236707620     A.U. after    9 cycles
             Convg  =    0.4929D-08             -V/T =  2.0058
 QCSCF skips out because SCF is already converged.

 **********************************************************************

            Population analysis using the SCF density.

 **********************************************************************

 Alpha  occ. eigenvalues --  -39.13922 -19.67572 -19.66993 -19.66361 -19.65841
 Alpha  occ. eigenvalues --  -19.65581 -19.65350 -10.66617 -10.62039 -10.61219
 Alpha  occ. eigenvalues --  -10.61172 -10.61108 -10.60906  -2.38340  -1.26336
 Alpha  occ. eigenvalues --   -1.26241  -1.26194  -1.23045  -1.18510  -1.17954
 Alpha  occ. eigenvalues --   -1.16781  -1.15596  -1.15267  -0.90429  -0.89170
 Alpha  occ. eigenvalues --   -0.80199  -0.75115  -0.72040  -0.69221  -0.65812
 Alpha  occ. eigenvalues --   -0.63372  -0.62605  -0.61273  -0.58741  -0.58156
 Alpha  occ. eigenvalues --   -0.55919  -0.55351  -0.52919  -0.52619  -0.50953
 Alpha  occ. eigenvalues --   -0.49726  -0.47332  -0.46276  -0.45279  -0.44218
 Alpha  occ. eigenvalues --   -0.43373  -0.42217  -0.40204  -0.38835  -0.37894
 Alpha  occ. eigenvalues --   -0.37041  -0.36136  -0.35003
 Alpha virt. eigenvalues --   -0.01143  -0.00195  -0.00018   0.00040   0.02585
 Alpha virt. eigenvalues --    0.03245   0.03412   0.03816   0.04132   0.04246
 Alpha virt. eigenvalues --    0.04406   0.05279   0.06122   0.06698   0.07272
 Alpha virt. eigenvalues --    0.08254   0.08754   0.08974   0.09598   0.10074
 Alpha virt. eigenvalues --    0.11308   0.11980   0.12284   0.12926   0.13240
 Alpha virt. eigenvalues --    0.13906   0.14931   0.15218   0.16024   0.16828
 Alpha virt. eigenvalues --    0.17255   0.17731   0.18629   0.19308   0.19370
 Alpha virt. eigenvalues --    0.19847   0.21283   0.21772   0.22422   0.22632
 Alpha virt. eigenvalues --    0.23411   0.23453   0.23702   0.24151   0.24940
 Alpha virt. eigenvalues --    0.25354   0.26161   0.26453   0.26618   0.27466
 Alpha virt. eigenvalues --    0.27848   0.28493   0.28769   0.29309   0.29949
 Alpha virt. eigenvalues --    0.30395   0.30659   0.31106   0.31311   0.32047
 Alpha virt. eigenvalues --    0.32375   0.32625   0.33620   0.34342   0.34632
 Alpha virt. eigenvalues --    0.35034   0.35606   0.36100   0.36199   0.37067
 Alpha virt. eigenvalues --    0.37654   0.38311   0.38925   0.40063   0.40347
 Alpha virt. eigenvalues --    0.41117   0.41952   0.42109   0.42741   0.44058
 Alpha virt. eigenvalues --    0.44522   0.45238   0.45475   0.47474   0.47910
 Alpha virt. eigenvalues --    0.48825   0.49649   0.50763   0.53774   0.58298
 Alpha virt. eigenvalues --    0.61461   0.62666   0.63418   0.64354   0.64697
 Alpha virt. eigenvalues --    0.66732   0.67180   0.68544   0.69114   0.70246
 Alpha virt. eigenvalues --    0.71341   0.72957   0.73425   0.74412   0.74568
 Alpha virt. eigenvalues --    0.76264   0.76637   0.77624   0.78613   0.80075
 Alpha virt. eigenvalues --    0.81452   0.83283   0.85377   0.85801   0.88872
 Alpha virt. eigenvalues --    0.90600   0.92571   0.93611   0.94470   0.94765
 Alpha virt. eigenvalues --    0.95943   0.96518   0.97302   0.97890   0.98171
 Alpha virt. eigenvalues --    0.98543   0.99083   0.99395   1.00063   1.00991
 Alpha virt. eigenvalues --    1.02087   1.03317   1.03871   1.04545   1.06002
 Alpha virt. eigenvalues --    1.06604   1.06875   1.08845   1.09244   1.10563
 Alpha virt. eigenvalues --    1.11299   1.12720   1.13570   1.14773   1.15153
 Alpha virt. eigenvalues --    1.16438   1.18057   1.18200   1.19637   1.22260
 Alpha virt. eigenvalues --    1.22730   1.23741   1.24996   1.25619   1.26560
 Alpha virt. eigenvalues --    1.27967   1.28869   1.29625   1.30375   1.31275
 Alpha virt. eigenvalues --    1.31741   1.32833   1.33608   1.34580   1.36835
 Alpha virt. eigenvalues --    1.39347   1.40553   1.41845   1.42566   1.43482
 Alpha virt. eigenvalues --    1.44334   1.47069   1.48575   1.48934   1.50548
 Alpha virt. eigenvalues --    1.51038   1.53747   1.53897   1.54874   1.57079
 Alpha virt. eigenvalues --    1.59029   1.60414   1.60540   1.63335   1.64430
 Alpha virt. eigenvalues --    1.65643   1.66451   1.67767   1.68448   1.70793
 Alpha virt. eigenvalues --    1.72528   1.75461   1.76107   1.77628   1.78765
 Alpha virt. eigenvalues --    1.81216   1.83078   1.83194   1.86164   1.88157
 Alpha virt. eigenvalues --    1.89783   1.93188   1.94144   1.95710   1.97187
 Alpha virt. eigenvalues --    1.98897   1.99475   2.01325   2.03692   2.06385
 Alpha virt. eigenvalues --    2.08653   2.09905   2.13980   2.14907   2.19290
 Alpha virt. eigenvalues --    2.20723   2.27408   2.31207   2.31675   2.32753
 Alpha virt. eigenvalues --    2.34387   2.35212   2.39811   2.46275   2.51173
 Alpha virt. eigenvalues --    2.51706   2.53695   2.57280   2.58342   2.60240
 Alpha virt. eigenvalues --    2.61125   2.61287   2.63239   2.65066   2.65337
 Alpha virt. eigenvalues --    2.66547   2.68745   2.70124   2.71790   2.75340
 Alpha virt. eigenvalues --    2.78738   2.81992   2.83575   2.84092   2.87067
 Alpha virt. eigenvalues --    2.88060   2.90321   2.91052   2.93670   2.96749
 Alpha virt. eigenvalues --    2.98495   2.98861   3.01355   3.04515   3.06103
 Alpha virt. eigenvalues --    3.07793   3.10620   3.12473   3.13053   3.14242
 Alpha virt. eigenvalues --    3.14672   3.16138   3.17467   3.19924   3.21791
 Alpha virt. eigenvalues --    3.25895   3.28711   3.29693   3.32203   3.33201
 Alpha virt. eigenvalues --    3.35480   3.38157   3.39687   3.41828   3.43858
 Alpha virt. eigenvalues --    3.46166   3.47062   3.51038   3.59373   3.59768
 Alpha virt. eigenvalues --    3.60354   3.62429   3.64318   3.69822   3.70827
 Alpha virt. eigenvalues --    3.71935   3.73309   3.76895   3.81476   3.85369
 Alpha virt. eigenvalues --    3.88685   3.90609   3.92385   3.93638   4.04720
 Alpha virt. eigenvalues --    4.07906   4.11538   4.13994   4.20261   4.22158
 Alpha virt. eigenvalues --    4.24565   4.26815   4.28047   4.32492   4.33846
 Alpha virt. eigenvalues --    4.34451   4.36132   4.37101   4.38865   4.39951
 Alpha virt. eigenvalues --    4.40694   4.41829   4.43837   4.46717   4.47216
 Alpha virt. eigenvalues --    4.49856   4.50535   4.51100   4.52581   4.54360
 Alpha virt. eigenvalues --    4.54979   4.57564   4.58812   4.60301   4.60690
 Alpha virt. eigenvalues --    4.61590   4.62594   4.63627   4.65402   4.66757
 Alpha virt. eigenvalues --    4.67305   4.67657   4.69039   4.70860   4.70987
 Alpha virt. eigenvalues --    4.73344   4.73719   4.74881   4.75783   4.76970
 Alpha virt. eigenvalues --    4.77406   4.78835   4.81484   4.83378   4.86806
 Alpha virt. eigenvalues --    4.88234   4.90160   4.92754   4.94162   4.94965
 Alpha virt. eigenvalues --    4.95783   4.98157   5.02045   5.06148   5.08126
 Alpha virt. eigenvalues --    5.09674   5.12240   5.14522   5.20588   5.21993
 Alpha virt. eigenvalues --    5.23741   5.25583   5.28403   5.30083   5.31468
 Alpha virt. eigenvalues --    5.33668   5.37247   5.39218   5.40019   5.41235
 Alpha virt. eigenvalues --    5.43983   5.45054   5.46737   5.47810   5.48056
 Alpha virt. eigenvalues --    5.49923   5.51310   5.53563   5.55845   5.57726
 Alpha virt. eigenvalues --    5.59589   5.63468   5.65004   5.69671   5.76016
 Alpha virt. eigenvalues --    5.78597   5.82863   5.86268   5.88190   5.92253
 Alpha virt. eigenvalues --    5.94111   5.94875   5.96078   5.99261   6.01534
 Alpha virt. eigenvalues --    6.03779   6.03870   6.05818   6.07648   6.08857
 Alpha virt. eigenvalues --    6.09464   6.12318   6.14646   6.15835   6.22663
 Alpha virt. eigenvalues --    6.29583   6.47953   6.96688   7.15518   7.26427
 Alpha virt. eigenvalues --    7.28091   7.34709   7.44124   7.50363   7.98749
 Alpha virt. eigenvalues --   12.11380  12.25955  12.50962  12.87489  13.09805
 Alpha virt. eigenvalues --   13.39124  13.53586  13.57012  13.67978  13.73079
 Alpha virt. eigenvalues --   13.76834  14.24092
          Condensed to atoms (all electrons):
              1          2          3          4          5          6
     1  C    5.485073   0.080734  -0.151441   0.071293  -0.183582   0.001715
     2  C    0.080734   5.389086   0.375388  -0.211325  -0.068657   0.026687
     3  C   -0.151441   0.375388   5.318046   0.063552   0.066069  -0.117427
     4  C    0.071293  -0.211325   0.063552   5.693596  -0.186885   0.101691
     5  C   -0.183582  -0.068657   0.066069  -0.186885   6.164227  -0.143713
     6  C    0.001715   0.026687  -0.117427   0.101691  -0.143713   5.680718
     7  O    0.351206  -0.067335  -0.010427   0.005955  -0.017753   0.001196
     8  O   -0.062867   0.282966  -0.072274  -0.012287  -0.003951   0.000449
     9  O    0.006099  -0.061642   0.303703  -0.072297  -0.007896  -0.002722
    10  O    0.007365  -0.010516   0.015228   0.249507  -0.050950  -0.063158
    11  O    0.143288  -0.084714  -0.020140  -0.013455   0.170110  -0.039026
    12  O   -0.005966   0.004389   0.018820  -0.029459   0.005173   0.094016
    13  H    0.331723  -0.009468  -0.000761  -0.004564   0.020598   0.005236
    14  H   -0.053729   0.390276  -0.045645   0.021610  -0.005287   0.006701
    15  H   -0.019751  -0.015656   0.413436  -0.072555   0.008971   0.002128
    16  H    0.000923  -0.006111   0.033094   0.372736  -0.069575  -0.022589
    17  H    0.022604  -0.023723  -0.000361   0.006332   0.326952  -0.025203
    18  H   -0.016330   0.000104   0.003219  -0.002626   0.002020  -0.000124
    19  H   -0.045200   0.011848   0.013379   0.000329  -0.000203   0.000115
    20  H    0.005110  -0.038086  -0.026916   0.032859   0.000727   0.000754
    21  H   -0.002008   0.006508  -0.023724  -0.034925   0.024523   0.003385
    22  H    0.001110  -0.000345  -0.000457   0.005889   0.007703  -0.033704
    23  H   -0.005613   0.001492   0.002777   0.005309  -0.096518   0.472536
    24  H   -0.001849   0.003072  -0.003775   0.007474  -0.064749   0.431062
    25  Na  -0.016876  -0.000390   0.011913  -0.013944   0.008704  -0.031250
              7          8          9         10         11         12
     1  C    0.351206  -0.062867   0.006099   0.007365   0.143288  -0.005966
     2  C   -0.067335   0.282966  -0.061642  -0.010516  -0.084714   0.004389
     3  C   -0.010427  -0.072274   0.303703   0.015228  -0.020140   0.018820
     4  C    0.005955  -0.012287  -0.072297   0.249507  -0.013455  -0.029459
     5  C   -0.017753  -0.003951  -0.007896  -0.050950   0.170110   0.005173
     6  C    0.001196   0.000449  -0.002722  -0.063158  -0.039026   0.094016
     7  O    8.002748  -0.004688   0.000235  -0.000142  -0.045960   0.001042
     8  O   -0.004688   8.159563  -0.008757   0.000208   0.001305  -0.000229
     9  O    0.000235  -0.008757   8.138390  -0.014433  -0.003174   0.000455
    10  O   -0.000142   0.000208  -0.014433   8.163264   0.002356   0.002192
    11  O   -0.045960   0.001305  -0.003174   0.002356   8.021264  -0.025483
    12  O    0.001042  -0.000229   0.000455   0.002192  -0.025483   8.265940
    13  H   -0.018927   0.002226   0.000117  -0.000282  -0.021797  -0.000512
    14  H   -0.001691  -0.028979   0.000587   0.000148   0.020483  -0.000333
    15  H    0.000381  -0.003208  -0.031948  -0.000568   0.009338   0.000025
    16  H   -0.000288  -0.000232  -0.003481  -0.036048   0.024394   0.002088
    17  H   -0.000154  -0.000260   0.000026  -0.001713  -0.011369   0.004426
    18  H    0.300862  -0.000731   0.000005   0.000002  -0.001321  -0.000010
    19  H    0.007849   0.285937   0.000135   0.000001   0.000119   0.000002
    20  H   -0.000019   0.009686   0.288674   0.000629  -0.000191  -0.000017
    21  H    0.000001  -0.000053   0.011371   0.283849  -0.000472   0.000066
    22  H   -0.000017   0.000000   0.000001  -0.000134   0.001889   0.287822
    23  H    0.000170  -0.000001   0.000001  -0.000131   0.004515  -0.042290
    24  H    0.000017  -0.000004  -0.000044   0.001077   0.002322  -0.030681
    25  Na   0.012716   0.001310   0.000830   0.001230   0.060351   0.030206
             13         14         15         16         17         18
     1  C    0.331723  -0.053729  -0.019751   0.000923   0.022604  -0.016330
     2  C   -0.009468   0.390276  -0.015656  -0.006111  -0.023723   0.000104
     3  C   -0.000761  -0.045645   0.413436   0.033094  -0.000361   0.003219
     4  C   -0.004564   0.021610  -0.072555   0.372736   0.006332  -0.002626
     5  C    0.020598  -0.005287   0.008971  -0.069575   0.326952   0.002020
     6  C    0.005236   0.006701   0.002128  -0.022589  -0.025203  -0.000124
     7  O   -0.018927  -0.001691   0.000381  -0.000288  -0.000154   0.300862
     8  O    0.002226  -0.028979  -0.003208  -0.000232  -0.000260  -0.000731
     9  O    0.000117   0.000587  -0.031948  -0.003481   0.000026   0.000005
    10  O   -0.000282   0.000148  -0.000568  -0.036048  -0.001713   0.000002
    11  O   -0.021797   0.020483   0.009338   0.024394  -0.011369  -0.001321
    12  O   -0.000512  -0.000333   0.000025   0.002088   0.004426  -0.000010
    13  H    0.515034   0.003265   0.000597  -0.000095   0.001177  -0.006286
    14  H    0.003265   0.519367   0.003697   0.000141  -0.000089  -0.000075
    15  H    0.000597   0.003697   0.528318   0.003714   0.000604   0.000009
    16  H   -0.000095   0.000141   0.003714   0.527746   0.003619   0.000002
    17  H    0.001177  -0.000089   0.000604   0.003619   0.518521  -0.000003
    18  H   -0.006286  -0.000075   0.000009   0.000002  -0.000003   0.319711
    19  H   -0.000096  -0.004537  -0.000073   0.000007   0.000001  -0.000215
    20  H    0.000002  -0.000212  -0.003614  -0.000124  -0.000004   0.000000
    21  H   -0.000003  -0.000004  -0.000521  -0.002205  -0.000230   0.000000
    22  H    0.000000   0.000000   0.000000   0.000069  -0.000108   0.000000
    23  H    0.000012   0.000001  -0.000003  -0.000076  -0.001975  -0.000001
    24  H   -0.000005  -0.000001  -0.000005   0.000148   0.000099   0.000000
    25  Na   0.002916  -0.004061   0.000136  -0.004707   0.002292  -0.003276
             19         20         21         22         23         24
     1  C   -0.045200   0.005110  -0.002008   0.001110  -0.005613  -0.001849
     2  C    0.011848  -0.038086   0.006508  -0.000345   0.001492   0.003072
     3  C    0.013379  -0.026916  -0.023724  -0.000457   0.002777  -0.003775
     4  C    0.000329   0.032859  -0.034925   0.005889   0.005309   0.007474
     5  C   -0.000203   0.000727   0.024523   0.007703  -0.096518  -0.064749
     6  C    0.000115   0.000754   0.003385  -0.033704   0.472536   0.431062
     7  O    0.007849  -0.000019   0.000001  -0.000017   0.000170   0.000017
     8  O    0.285937   0.009686  -0.000053   0.000000  -0.000001  -0.000004
     9  O    0.000135   0.288674   0.011371   0.000001   0.000001  -0.000044
    10  O    0.000001   0.000629   0.283849  -0.000134  -0.000131   0.001077
    11  O    0.000119  -0.000191  -0.000472   0.001889   0.004515   0.002322
    12  O    0.000002  -0.000017   0.000066   0.287822  -0.042290  -0.030681
    13  H   -0.000096   0.000002  -0.000003   0.000000   0.000012  -0.000005
    14  H   -0.004537  -0.000212  -0.000004   0.000000   0.000001  -0.000001
    15  H   -0.000073  -0.003614  -0.000521   0.000000  -0.000003  -0.000005
    16  H    0.000007  -0.000124  -0.002205   0.000069  -0.000076   0.000148
    17  H    0.000001  -0.000004  -0.000230  -0.000108  -0.001975   0.000099
    18  H   -0.000215   0.000000   0.000000   0.000000  -0.000001   0.000000
    19  H    0.338047  -0.000228   0.000000   0.000000   0.000000   0.000000
    20  H   -0.000228   0.336894  -0.000317   0.000000   0.000000   0.000000
    21  H    0.000000  -0.000317   0.339382   0.000001   0.000002   0.000146
    22  H    0.000000   0.000000   0.000001   0.309970  -0.001070  -0.004073
    23  H    0.000000   0.000000   0.000002  -0.001070   0.512472  -0.032112
    24  H    0.000000   0.000000   0.000146  -0.004073  -0.032112   0.496640
    25  Na   0.000049   0.000079   0.000138  -0.005221  -0.001833   0.003048
             25
     1  C   -0.016876
     2  C   -0.000390
     3  C    0.011913
     4  C   -0.013944
     5  C    0.008704
     6  C   -0.031250
     7  O    0.012716
     8  O    0.001310
     9  O    0.000830
    10  O    0.001230
    11  O    0.060351
    12  O    0.030206
    13  H    0.002916
    14  H   -0.004061
    15  H    0.000136
    16  H   -0.004707
    17  H    0.002292
    18  H   -0.003276
    19  H    0.000049
    20  H    0.000079
    21  H    0.000138
    22  H   -0.005221
    23  H   -0.001833
    24  H    0.003048
    25  Na   9.974372
 Mulliken atomic charges:
              1
     1  C    0.056969
     2  C    0.025419
     3  C   -0.165275
     4  C    0.016192
     5  C    0.093943
     6  C   -0.349474
     7  O   -0.516978
     8  O   -0.545131
     9  O   -0.544234
    10  O   -0.548982
    11  O   -0.194632
    12  O   -0.581683
    13  H    0.179895
    14  H    0.178365
    15  H    0.176545
    16  H    0.176850
    17  H    0.178541
    18  H    0.405064
    19  H    0.392733
    20  H    0.394315
    21  H    0.395089
    22  H    0.430675
    23  H    0.182338
    24  H    0.192192
    25  Na   0.971268
 Sum of Mulliken atomic charges =   1.00000
 Mulliken charges with hydrogens summed into heavy atoms:
              1
     1  C    0.236864
     2  C    0.203783
     3  C    0.011270
     4  C    0.193041
     5  C    0.272483
     6  C    0.025055
     7  O   -0.111914
     8  O   -0.152399
     9  O   -0.149919
    10  O   -0.153892
    11  O   -0.194632
    12  O   -0.151008
    25  Na   0.971268
 Sum of Mulliken charges with hydrogens summed into heavy atoms =   1.00000
 Electronic spatial extent (au):  <R**2>=           3449.4323
 Charge=              1.0000 electrons
 Dipole moment (field-independent basis, Debye):
    X=              9.7150    Y=             -1.8025    Z=              7.1979  Tot=             12.2245
 Quadrupole moment (field-independent basis, Debye-Ang):
   XX=            -37.5478   YY=            -71.3929   ZZ=            -56.4841
   XY=             -2.0334   XZ=             17.6848   YZ=              0.4498
 Traceless Quadrupole moment (field-independent basis, Debye-Ang):
   XX=             17.5938   YY=            -16.2513   ZZ=             -1.3425
   XY=             -2.0334   XZ=             17.6848   YZ=              0.4498
 Octapole moment (field-independent basis, Debye-Ang**2):
  XXX=            -84.8547  YYY=           -273.6561  ZZZ=            183.4587  XYY=            -85.8455
  XXY=            -84.7458  XXZ=             99.7761  XZZ=            -39.3278  YZZ=            -87.5387
  YYZ=             41.6026  XYZ=              7.7129
 Hexadecapole moment (field-independent basis, Debye-Ang**3):
 XXXX=          -1160.1458 YYYY=          -1363.9133 ZZZZ=           -668.1371 XXXY=           -182.5283
 XXXZ=            272.3444 YYYX=           -223.0889 YYYZ=            291.5156 ZZZX=            275.1696
 ZZZY=            359.2077 XXYY=           -526.1224 XXZZ=           -358.0991 YYZZ=           -317.6898
 XXYZ=            145.3474 YYXZ=             64.5514 ZZXY=            -91.9166
 N-N= 9.887719773705D+02 E-N=-3.963508882446D+03  KE= 8.443218837151D+02
 D1PCM: C-PCM CHGder 1st derivatives, ID1Alg=3 FixD1E=F DoIter=F DoCFld=F I1PDM=0.
 Calling FoFJK, ICntrl=      2127 FMM=F ISym2X=0 I1Cent= 0 IOpClX= 0 NMat=1 NMatS=1 NMatT=0.
 -------------------------------------------------------------------
 Center     Atomic                   Forces (Hartrees/Bohr)
 Number     Number              X              Y              Z
 -------------------------------------------------------------------
      1        6           0.000262495   -0.000044664    0.000352323
      2        6           0.000355317    0.000058558    0.000210671
      3        6           0.000115612   -0.000269584    0.000074580
      4        6          -0.000110946   -0.000196947    0.000400782
      5        6          -0.000226651   -0.000196077    0.000356161
      6        6           0.000092547    0.000034254    0.000397233
      7        8          -0.000190839    0.000118773   -0.000201362
      8        8          -0.000357302    0.000056528   -0.000199417
      9        8          -0.000107224    0.000296274   -0.000074849
     10        8           0.000108694    0.000268503   -0.000348902
     11        8          -0.000032604   -0.000116651   -0.000767300
     12        8           0.000041431    0.000139151   -0.000545744
     13        1           0.000006410   -0.000021755   -0.000048854
     14        1          -0.000139793    0.000003623    0.000081859
     15        1          -0.000010251    0.000025473   -0.000067017
     16        1           0.000091855   -0.000040690   -0.000023494
     17        1           0.000001693   -0.000008105   -0.000062194
     18        1           0.000170047   -0.000014488    0.000032080
     19        1           0.000060741   -0.000032017    0.000035770
     20        1          -0.000001323   -0.000019933   -0.000012197
     21        1           0.000031850    0.000003427    0.000031223
     22        1          -0.000031231   -0.000161218    0.000152151
     23        1          -0.000013934    0.000017167    0.000010747
     24        1           0.000070231   -0.000020123   -0.000036554
     25       11          -0.000186825    0.000120520    0.000252304
 -------------------------------------------------------------------
 Cartesian Forces:  Max     0.000767300 RMS     0.000193540

 GradGradGradGradGradGradGradGradGradGradGradGradGradGradGradGradGradGrad
 Berny optimization.
 Internal  Forces:  Max     0.000422030 RMS     0.000089825
 Search for a local minimum.
 Step number   1 out of a maximum of  150
 All quantities printed in internal units (Hartrees-Bohrs-Radians)
 Mixed Optimization -- En-DIIS/RFO-DIIS
 Second derivative matrix not updated -- first step.
 ITU=  0
     Eigenvalues ---    0.00770   0.00818   0.01169   0.01325   0.01553
     Eigenvalues ---    0.01583   0.01599   0.01907   0.01959   0.02395
     Eigenvalues ---    0.02751   0.03351   0.03888   0.04388   0.04716
     Eigenvalues ---    0.04969   0.05136   0.05216   0.05508   0.05663
     Eigenvalues ---    0.06021   0.06262   0.06332   0.06686   0.06842
     Eigenvalues ---    0.07064   0.07109   0.07794   0.08451   0.08855
     Eigenvalues ---    0.09249   0.09699   0.10171   0.12024   0.12771
     Eigenvalues ---    0.13491   0.15836   0.16000   0.16000   0.16000
     Eigenvalues ---    0.16000   0.16534   0.17999   0.18687   0.20038
     Eigenvalues ---    0.24067   0.28823   0.29104   0.29417   0.30012
     Eigenvalues ---    0.33117   0.33476   0.33643   0.33656   0.33676
     Eigenvalues ---    0.34173   0.34367   0.37623   0.40465   0.40925
     Eigenvalues ---    0.42739   0.43930   0.44285   0.48433   0.54520
     Eigenvalues ---    0.54681   0.54717   0.54779   0.55147
 RFO step:  Lambda=-1.49112122D-05 EMin= 7.70186983D-03
 Linear search not attempted -- first point.
 Iteration  1 RMS(Cart)=  0.00320058 RMS(Int)=  0.00001000
 Iteration  2 RMS(Cart)=  0.00000921 RMS(Int)=  0.00000150
 Iteration  3 RMS(Cart)=  0.00000000 RMS(Int)=  0.00000150
 Variable       Old X    -DE/DX   Delta X   Delta X   Delta X     New X
                                 (Linear)    (Quad)   (Total)
    R1        2.88044  -0.00005   0.00000   0.00017   0.00017   2.88061
    R2        2.61480  -0.00016   0.00000  -0.00033  -0.00033   2.61447
    R3        2.68143  -0.00029   0.00000  -0.00077  -0.00077   2.68066
    R4        2.08017   0.00002   0.00000   0.00014   0.00014   2.08030
    R5        2.86964   0.00004   0.00000   0.00017   0.00017   2.86981
    R6        2.65887   0.00027   0.00000   0.00070   0.00070   2.65958
    R7        2.07937   0.00005   0.00000   0.00016   0.00016   2.07953
    R8        2.87185   0.00009   0.00000   0.00041   0.00040   2.87225
    R9        2.66538   0.00029   0.00000   0.00067   0.00067   2.66605
   R10        2.08223   0.00005   0.00000   0.00014   0.00014   2.08237
   R11        2.88772   0.00013   0.00000   0.00032   0.00032   2.88804
   R12        2.66115   0.00042   0.00000   0.00095   0.00095   2.66210
   R13        2.07880  -0.00002   0.00000  -0.00005  -0.00005   2.07874
   R14        2.86011   0.00009   0.00000   0.00031   0.00031   2.86042
   R15        2.68776  -0.00036   0.00000  -0.00095  -0.00095   2.68681
   R16        2.07914   0.00006   0.00000   0.00019   0.00019   2.07933
   R17        2.68813  -0.00029   0.00000  -0.00072  -0.00072   2.68741
   R18        2.07039  -0.00002   0.00000  -0.00006  -0.00006   2.07032
   R19        2.06715   0.00007   0.00000   0.00019   0.00019   2.06734
   R20        1.82029   0.00001   0.00000   0.00002   0.00002   1.82031
   R21        5.03674   0.00006   0.00000  -0.00036  -0.00036   5.03638
   R22        1.82085   0.00003   0.00000   0.00005   0.00005   1.82089
   R23        1.82117   0.00001   0.00000   0.00001   0.00001   1.82118
   R24        1.82261  -0.00001   0.00000  -0.00001  -0.00001   1.82260
   R25        4.43387   0.00006   0.00000   0.00082   0.00082   4.43469
   R26        1.81702   0.00000   0.00000   0.00000   0.00000   1.81701
   R27        4.45837   0.00014   0.00000   0.00249   0.00249   4.46086
    A1        1.88228  -0.00007   0.00000  -0.00045  -0.00045   1.88183
    A2        1.91375   0.00006   0.00000   0.00023   0.00023   1.91398
    A3        1.92961   0.00003   0.00000   0.00084   0.00084   1.93045
    A4        1.88245   0.00005   0.00000   0.00011   0.00011   1.88256
    A5        1.95029   0.00001   0.00000  -0.00013  -0.00013   1.95016
    A6        1.90464  -0.00007   0.00000  -0.00060  -0.00060   1.90404
    A7        1.91269  -0.00006   0.00000  -0.00019  -0.00019   1.91250
    A8        1.94397  -0.00005   0.00000  -0.00044  -0.00044   1.94353
    A9        1.88143   0.00003   0.00000   0.00034   0.00034   1.88177
   A10        1.87734   0.00006   0.00000  -0.00018  -0.00018   1.87715
   A11        1.90710   0.00005   0.00000   0.00116   0.00116   1.90826
   A12        1.94120  -0.00003   0.00000  -0.00065  -0.00065   1.94055
   A13        1.92333  -0.00004   0.00000   0.00096   0.00095   1.92428
   A14        1.95302  -0.00004   0.00000   0.00009   0.00009   1.95312
   A15        1.89644   0.00005   0.00000  -0.00040  -0.00040   1.89604
   A16        1.87257   0.00011   0.00000   0.00074   0.00074   1.87331
   A17        1.89490  -0.00003   0.00000  -0.00055  -0.00055   1.89435
   A18        1.92285  -0.00005   0.00000  -0.00085  -0.00085   1.92200
   A19        1.91051  -0.00004   0.00000  -0.00007  -0.00007   1.91044
   A20        1.94066  -0.00007   0.00000  -0.00081  -0.00081   1.93985
   A21        1.89725   0.00006   0.00000   0.00087   0.00087   1.89812
   A22        1.88129   0.00013   0.00000   0.00096   0.00096   1.88225
   A23        1.89965  -0.00005   0.00000  -0.00061  -0.00061   1.89904
   A24        1.93401  -0.00003   0.00000  -0.00035  -0.00035   1.93365
   A25        1.97268   0.00000   0.00000   0.00054   0.00054   1.97322
   A26        1.91005  -0.00003   0.00000  -0.00067  -0.00067   1.90938
   A27        1.89947   0.00005   0.00000   0.00075   0.00075   1.90023
   A28        1.86691   0.00002   0.00000  -0.00078  -0.00078   1.86613
   A29        1.89195   0.00000   0.00000  -0.00008  -0.00008   1.89187
   A30        1.92251  -0.00004   0.00000   0.00021   0.00021   1.92272
   A31        1.87965  -0.00005   0.00000   0.00007   0.00007   1.87972
   A32        1.90791  -0.00006   0.00000  -0.00070  -0.00070   1.90722
   A33        1.89953   0.00009   0.00000   0.00074   0.00075   1.90028
   A34        1.92767   0.00007   0.00000   0.00008   0.00009   1.92776
   A35        1.94000  -0.00003   0.00000   0.00008   0.00009   1.94009
   A36        1.90846  -0.00003   0.00000  -0.00029  -0.00029   1.90818
   A37        1.91903  -0.00008   0.00000  -0.00049  -0.00049   1.91855
   A38        1.89732  -0.00017   0.00000  -0.00105  -0.00105   1.89628
   A39        1.89254  -0.00004   0.00000  -0.00025  -0.00025   1.89230
   A40        1.88002  -0.00001   0.00000  -0.00008  -0.00008   1.87994
   A41        1.99161   0.00015   0.00000   0.00040   0.00040   1.99200
   A42        2.10227  -0.00022   0.00000  -0.00228  -0.00228   2.09999
   A43        2.05000   0.00004   0.00000  -0.00101  -0.00102   2.04898
   A44        1.90559   0.00005   0.00000  -0.00021  -0.00021   1.90538
   A45        1.96580   0.00006   0.00000   0.00006   0.00006   1.96586
   A46        2.13518  -0.00012   0.00000  -0.00144  -0.00143   2.13375
   A47        1.20776  -0.00009   0.00000  -0.00003  -0.00004   1.20772
    D1        3.03071   0.00001   0.00000  -0.00138  -0.00138   3.02933
    D2       -1.17726   0.00001   0.00000  -0.00201  -0.00201  -1.17926
    D3        0.95684  -0.00004   0.00000  -0.00286  -0.00286   0.95397
    D4        0.98528  -0.00005   0.00000  -0.00139  -0.00139   0.98389
    D5        3.06050  -0.00004   0.00000  -0.00201  -0.00201   3.05849
    D6       -1.08860  -0.00009   0.00000  -0.00286  -0.00286  -1.09146
    D7       -1.11551  -0.00001   0.00000  -0.00132  -0.00132  -1.11683
    D8        0.95971  -0.00001   0.00000  -0.00194  -0.00194   0.95777
    D9        3.09380  -0.00006   0.00000  -0.00280  -0.00280   3.09100
   D10        2.79488   0.00008   0.00000   0.00562   0.00562   2.80050
   D11       -1.42269   0.00014   0.00000   0.00571   0.00571  -1.41699
   D12        0.67068   0.00009   0.00000   0.00496   0.00496   0.67564
   D13       -1.07094  -0.00004   0.00000  -0.00110  -0.00110  -1.07204
   D14        1.51411  -0.00008   0.00000  -0.00662  -0.00661   1.50750
   D15       -3.11626  -0.00002   0.00000  -0.00075  -0.00075  -3.11702
   D16       -0.53121  -0.00006   0.00000  -0.00627  -0.00627  -0.53748
   D17        1.04496  -0.00002   0.00000  -0.00030  -0.00030   1.04466
   D18       -2.65317  -0.00006   0.00000  -0.00582  -0.00582  -2.65899
   D19       -0.95921   0.00003   0.00000   0.00203   0.00203  -0.95718
   D20       -3.04120  -0.00006   0.00000   0.00040   0.00040  -3.04080
   D21        1.11495   0.00000   0.00000   0.00168   0.00168   1.11663
   D22       -3.07513   0.00008   0.00000   0.00278   0.00278  -3.07235
   D23        1.12606   0.00000   0.00000   0.00115   0.00115   1.12722
   D24       -1.00098   0.00005   0.00000   0.00244   0.00244  -0.99854
   D25        1.09873   0.00006   0.00000   0.00300   0.00300   1.10173
   D26       -0.98326  -0.00003   0.00000   0.00138   0.00138  -0.98188
   D27       -3.11030   0.00003   0.00000   0.00266   0.00266  -3.10764
   D28        1.15627   0.00001   0.00000  -0.00014  -0.00014   1.15613
   D29       -3.03070  -0.00005   0.00000  -0.00075  -0.00075  -3.03145
   D30       -0.94296   0.00003   0.00000   0.00017   0.00017  -0.94279
   D31        0.96052  -0.00001   0.00000  -0.00110  -0.00110   0.95943
   D32        3.03720   0.00008   0.00000  -0.00045  -0.00045   3.03674
   D33       -1.11239   0.00004   0.00000  -0.00083  -0.00083  -1.11323
   D34        3.09082  -0.00002   0.00000   0.00005   0.00005   3.09087
   D35       -1.11570   0.00007   0.00000   0.00070   0.00070  -1.11500
   D36        1.01790   0.00003   0.00000   0.00032   0.00032   1.01822
   D37       -1.11458  -0.00003   0.00000  -0.00084  -0.00084  -1.11542
   D38        0.96210   0.00006   0.00000  -0.00020  -0.00020   0.96190
   D39        3.09569   0.00001   0.00000  -0.00058  -0.00058   3.09511
   D40       -1.07118   0.00000   0.00000   0.00116   0.00116  -1.07002
   D41        3.10035   0.00001   0.00000  -0.00057  -0.00057   3.09978
   D42        1.04063   0.00001   0.00000   0.00012   0.00012   1.04076
   D43       -3.06544   0.00004   0.00000   0.00113   0.00113  -3.06431
   D44       -0.98688   0.00004   0.00000   0.00004   0.00004  -0.98685
   D45        1.11485   0.00001   0.00000   0.00035   0.00035   1.11520
   D46        1.10471   0.00007   0.00000   0.00157   0.00157   1.10628
   D47       -3.09992   0.00008   0.00000   0.00048   0.00047  -3.09944
   D48       -0.99818   0.00004   0.00000   0.00079   0.00079  -0.99739
   D49       -0.99401   0.00006   0.00000   0.00178   0.00178  -0.99223
   D50        1.08455   0.00006   0.00000   0.00069   0.00069   1.08523
   D51       -3.09690   0.00003   0.00000   0.00100   0.00100  -3.09590
   D52        0.87952   0.00002   0.00000   0.00121   0.00121   0.88072
   D53        2.97361   0.00001   0.00000   0.00125   0.00125   2.97485
   D54       -1.23264   0.00002   0.00000   0.00089   0.00089  -1.23175
   D55        1.14558  -0.00008   0.00000  -0.00454  -0.00454   1.14103
   D56       -3.04275  -0.00006   0.00000  -0.00480  -0.00480  -3.04754
   D57       -0.95932  -0.00007   0.00000  -0.00511  -0.00511  -0.96443
   D58       -0.95775  -0.00006   0.00000  -0.00351  -0.00351  -0.96126
   D59        1.13711  -0.00003   0.00000  -0.00377  -0.00377   1.13334
   D60       -3.06265  -0.00004   0.00000  -0.00408  -0.00408  -3.06673
   D61       -3.03044  -0.00002   0.00000  -0.00329  -0.00329  -3.03373
   D62       -0.93557   0.00000   0.00000  -0.00355  -0.00355  -0.93912
   D63        1.14785  -0.00001   0.00000  -0.00387  -0.00387   1.14399
   D64        1.07141   0.00000   0.00000   0.00148   0.00148   1.07289
   D65       -1.53129   0.00013   0.00000   0.00727   0.00727  -1.52402
   D66       -3.06896  -0.00001   0.00000   0.00127   0.00127  -3.06769
   D67        0.61153   0.00012   0.00000   0.00706   0.00706   0.61859
   D68       -1.01622  -0.00002   0.00000   0.00085   0.00084  -1.01537
   D69        2.66427   0.00011   0.00000   0.00664   0.00663   2.67090
   D70       -2.97136  -0.00012   0.00000  -0.00460  -0.00460  -2.97596
   D71        0.87982  -0.00005   0.00000  -0.00231  -0.00232   0.87750
   D72        1.22951  -0.00006   0.00000  -0.00385  -0.00385   1.22566
   D73       -1.20250   0.00001   0.00000  -0.00156  -0.00156  -1.20406
   D74       -0.89210  -0.00006   0.00000  -0.00360  -0.00360  -0.89570
   D75        2.95907   0.00001   0.00000  -0.00131  -0.00131   2.95776
   D76       -2.69978  -0.00011   0.00000  -0.00100  -0.00101  -2.70078
   D77       -0.13263  -0.00012   0.00000  -0.00628  -0.00628  -0.13891
   D78       -0.41787   0.00003   0.00000   0.00427   0.00427  -0.41361
   D79       -2.74365   0.00002   0.00000   0.00621   0.00621  -2.73744
         Item               Value     Threshold  Converged?
 Maximum Force            0.000422     0.000450     YES
 RMS     Force            0.000090     0.000300     YES
 Maximum Displacement     0.025153     0.001800     NO 
 RMS     Displacement     0.003201     0.001200     NO 
 Predicted change in Energy=-7.458785D-06
 GradGradGradGradGradGradGradGradGradGradGradGradGradGradGradGradGradGrad

                          Input orientation:                          
 ---------------------------------------------------------------------
 Center     Atomic      Atomic             Coordinates (Angstroms)
 Number     Number       Type             X           Y           Z
 ---------------------------------------------------------------------
      1          6           0       -0.132865    0.040968   -0.332857
      2          6           0       -0.598551    1.492133   -0.362895
      3          6           0        0.143681    2.242258   -1.454984
      4          6           0        1.644854    2.100503   -1.263747
      5          6           0        2.012066    0.618440   -1.198210
      6          6           0        3.477708    0.383365   -0.901862
      7          8           0       -0.718973   -0.569228    0.761793
      8          8           0       -1.974329    1.583163   -0.645177
      9          8           0       -0.153370    3.621379   -1.441508
     10          8           0        2.350567    2.672912   -2.340230
     11          8           0        1.273781   -0.005358   -0.155463
     12          8           0        3.736386    0.866450    0.410438
     13          1           0       -0.394311   -0.469363   -1.272579
     14          1           0       -0.362261    1.941867    0.613261
     15          1           0       -0.128160    1.805420   -2.429436
     16          1           0        1.927027    2.578111   -0.313842
     17          1           0        1.773646    0.149566   -2.164671
     18          1           0       -0.704869   -1.525987    0.650907
     19          1           0       -2.465638    1.198714    0.089187
     20          1           0       -1.097692    3.731052   -1.599600
     21          1           0        2.006834    3.563796   -2.475854
     22          1           0        4.685248    0.865413    0.565947
     23          1           0        3.691745   -0.689291   -0.964046
     24          1           0        4.078887    0.916237   -1.644451
     25         11           0        2.198195    0.043930    2.000970
 ---------------------------------------------------------------------
                    Distance matrix (angstroms):
                    1          2          3          4          5
     1  C    0.000000
     2  C    1.524351   0.000000
     3  C    2.486227   1.518636   0.000000
     4  C    2.875505   2.492893   1.519930   0.000000
     5  C    2.383912   2.876875   2.488690   1.528284   0.000000
     6  C    3.671136   4.258607   3.857092   2.537494   1.513667
     7  O    1.383518   2.351305   3.682761   4.100970   3.565213
     8  O    2.422169   1.407387   2.361390   3.707932   4.138585
     9  O    3.748182   2.428020   1.410814   2.361836   3.710249
    10  O    4.138128   3.741843   2.416499   1.408722   2.374794
    11  O    1.418545   2.406478   2.831547   2.408451   1.421798
    12  O    4.025545   4.447606   4.275532   2.949625   2.371189
    13  H    1.100849   2.171798   2.770486   3.280622   2.641873
    14  H    2.135692   1.100442   2.150313   2.752604   3.266544
    15  H    2.740247   2.142430   1.101944   2.142308   2.739599
    16  H    3.268121   2.749600   2.143671   1.100022   2.151662
    17  H    2.646152   3.267446   2.745870   2.152768   1.100333
    18  H    1.936576   3.185615   4.399373   4.726365   3.924224
    19  H    2.638244   1.943319   3.206555   4.420385   4.695098
    20  H    4.018986   2.606020   1.943818   3.208278   4.418152
    21  H    4.645542   3.942640   2.501995   1.934285   3.210533
    22  H    4.970088   5.401301   5.158071   3.757289   3.212343
    23  H    3.944530   4.850425   4.628580   3.473116   2.141568
    24  H    4.497247   4.883899   4.156932   2.733485   2.135314
    25  Na   3.298575   3.937885   4.582280   3.897955   3.255681
                    6          7          8          9         10
     6  C    0.000000
     7  O    4.613818   0.000000
     8  O    5.588391   2.861516   0.000000
     9  O    4.894964   4.768190   2.846816   0.000000
    10  O    2.929398   5.436552   4.771319   2.824357   0.000000
    11  O    2.359133   2.265034   3.648759   4.104131   3.620194
    12  O    1.422117   4.694129   5.851519   5.113661   3.570710
    13  H    3.982098   2.062535   2.665137   4.101311   4.306752
    14  H    4.412469   2.540651   2.076319   2.662042   4.076391
    15  H    4.166294   4.021437   2.577075   2.067449   2.627658
    16  H    2.750870   4.250183   4.039838   2.586134   2.072346
    17  H    2.133817   3.910756   4.290849   4.036068   2.594404
    18  H    4.852902   0.963266   3.599747   5.583702   5.992774
    19  H    6.080323   2.574657   0.963575   3.682243   5.592062
    20  H    5.712104   4.920571   2.508554   0.963725   3.682212
    21  H    3.841361   5.915596   4.808736   2.395760   0.964479
    22  H    1.960864   5.594833   6.806758   5.919244   4.142904
    23  H    1.095568   4.737865   6.113110   5.796098   3.872602
    24  H    1.093987   5.569209   6.171286   5.027025   2.560685
    25  Na   3.190423   3.228218   5.175065   5.493510   5.077478
                   11         12         13         14         15
    11  O    0.000000
    12  O    2.672960   0.000000
    13  H    2.060530   4.656136   0.000000
    14  H    2.656925   4.242235   3.061282   0.000000
    15  H    3.227276   4.886846   2.565889   3.054737   0.000000
    16  H    2.669480   2.593866   3.949036   2.550523   3.049030
    17  H    2.076243   3.316241   2.424652   3.935905   2.535512
    18  H    2.622518   5.050379   2.216462   3.484940   4.573770
    19  H    3.936103   6.219221   2.987857   2.291534   3.489320
    20  H    4.655124   5.967789   4.271437   2.939183   2.310125
    21  H    4.319773   4.312505   4.845589   4.217332   2.766268
    22  H    3.593992   0.961521   5.564506   5.161234   5.746723
    23  H    2.639719   2.076422   4.103585   5.083881   4.791933
    24  H    3.306818   2.083832   4.697625   5.086549   4.371052
    25  Na   2.346736   2.360585   4.207218   3.476181   5.305023
                   16         17         18         19         20
    16  H    0.000000
    17  H    3.057274   0.000000
    18  H    4.970034   4.108283   0.000000
    19  H    4.621762   4.914481   3.292391   0.000000
    20  H    3.483013   4.625034   5.731976   3.337066   0.000000
    21  H    2.377443   3.436303   6.560172   5.672394   3.230152
    22  H    3.363799   4.055384   5.897403   7.174508   6.807634
    23  H    3.770001   2.413355   4.757977   6.525889   6.548440
    24  H    3.027020   2.484462   5.841014   6.776143   5.892553
    25  Na   3.442958   4.188552   3.565822   5.171052   6.117340
                   21         22         23         24         25
    21  H    0.000000
    22  H    4.869058   0.000000
    23  H    4.818011   2.396879   0.000000
    24  H    3.463265   2.292622   1.786211   0.000000
    25  Na   5.698072   2.986563   3.399944   4.193688   0.000000
 Symmetry turned off by external request.
 Stoichiometry    C6H12NaO6(1+)
 Framework group  C1[X(C6H12NaO6)]
 Deg. of freedom    69
 Full point group                 C1      NOp   1
 Rotational constants (GHZ):      0.8825887      0.6926040      0.4524075
 Standard basis: 6-31+G(2df,p) (6D, 7F)
 Integral buffers will be    131072 words long.
 Raffenetti 2 integral format.
 Two-electron integral symmetry is turned off.
   480 basis functions,   732 primitive gaussians,   519 cartesian basis functions
    53 alpha electrons       53 beta electrons
       nuclear repulsion energy       988.8260876453 Hartrees.
 NAtoms=   25 NActive=   25 NUniq=   25 SFac= 1.00D+00 NAtFMM=   50 NAOKFM=F Big=F
 ------------------------------------------------------------------------------
 Polarizable Continuum Model (PCM)
 =================================
 Model                : C-PCM.
 Atomic radii         : UFF (Universal Force Field).
 Polarization charges : Total charges.
 Charge compensation  : None.
 Solution method      : Matrix inversion.
 Cavity type          : Scaled VdW (van der Waals Surface) (Alpha=1.100).
 Cavity algorithm     : GePol (No added spheres)
                        Default sphere list used, NSphG=   25.
                        Lebedev-Laikov grids with approx.  5.0 points / Ang**2.
                        Smoothing algorithm: Karplus/York (Gamma=1.0000).
                        Polarization charges: spherical gaussians, with
                                              point-specific exponents (IZeta= 3).
                        Self-potential: point-specific (ISelfS= 7).
                        Self-field    : sphere-specific E.n sum rule (ISelfD= 2).
 1st derivatives      : Analytical E(r).r(x)/FMM algorithm (CHGder, D1EAlg=3).
                        Cavity 1st derivative terms included.
 Solvent              : Water, Eps=  78.355300 Eps(inf)=   1.777849
 ------------------------------------------------------------------------------
 One-electron integrals computed using PRISM.
 NBasis=   480 RedAO= T  NBF=   480
 NBsUse=   480 1.00D-06 NBFU=   480
 Initial guess read from the read-write file.
 B after Tr=     0.000000    0.000000    0.000000
         Rot=    1.000000    0.000000    0.000000    0.000000 Ang=   0.00 deg.
 Harris functional with IExCor= 1009 diagonalized for initial guess.
 ExpMin= 7.60D-03 ExpMax= 9.99D+03 ExpMxC= 1.50D+03 IAcc=3 IRadAn=         0 AccDes= 0.00D+00
 HarFok:  IExCor= 1009 AccDes= 0.00D+00 IRadAn=         0 IDoV= 1
 ScaDFX=  1.000000  1.000000  1.000000  1.000000
 FoFCou: FMM=F IPFlag=           0 FMFlag=      100000 FMFlg1=           0
         NFxFlg=           0 DoJE=T BraDBF=F KetDBF=T FulRan=T
         Omega=  0.000000  0.000000  1.000000  0.000000  0.000000 ICntrl=     500 IOpCl=  0
         NMat0=    1 NMatS0=    1 NMatT0=    0 NMatD0=    1 NMtDS0=    0 NMtDT0=    0
         I1Cent=           4 NGrid=           0.
 Symmetry not used in FoFCou.
 Requested convergence on RMS density matrix=1.00D-08 within 128 cycles.
 Requested convergence on MAX density matrix=1.00D-06.
 Requested convergence on             energy=1.00D-06.
 No special actions if energy rises.
 Error on total polarization charges =  0.01047
 SCF Done:  E(RM062X) =  -849.236718408     A.U. after    8 cycles
             Convg  =    0.5726D-08             -V/T =  2.0058
 QCSCF skips out because SCF is already converged.
 D1PCM: C-PCM CHGder 1st derivatives, ID1Alg=3 FixD1E=F DoIter=F DoCFld=F I1PDM=0.
 Calling FoFJK, ICntrl=      2127 FMM=F ISym2X=0 I1Cent= 0 IOpClX= 0 NMat=1 NMatS=1 NMatT=0.
 -------------------------------------------------------------------
 Center     Atomic                   Forces (Hartrees/Bohr)
 Number     Number              X              Y              Z
 -------------------------------------------------------------------
      1        6           0.000136203    0.000015056    0.000248918
      2        6           0.000218464    0.000039477    0.000044779
      3        6           0.000009279   -0.000158835    0.000001086
      4        6          -0.000074285    0.000021979    0.000156261
      5        6          -0.000006306   -0.000046191    0.000129510
      6        6           0.000029139    0.000068714    0.000118033
      7        8          -0.000243181    0.000009672   -0.000098327
      8        8          -0.000156162    0.000030648   -0.000083303
      9        8           0.000040286    0.000086694    0.000010921
     10        8           0.000048002    0.000013149   -0.000098783
     11        8           0.000023886   -0.000191440   -0.000409110
     12        8           0.000049456    0.000216479   -0.000361725
     13        1          -0.000055559    0.000088113   -0.000051995
     14        1          -0.000050606   -0.000018772   -0.000024041
     15        1           0.000015261   -0.000010401   -0.000006260
     16        1           0.000032842   -0.000019109   -0.000020053
     17        1          -0.000004464    0.000052673   -0.000018709
     18        1           0.000118389   -0.000042302    0.000053803
     19        1          -0.000013259   -0.000003206   -0.000005861
     20        1           0.000005271   -0.000027665   -0.000016332
     21        1           0.000013701   -0.000005608    0.000049100
     22        1          -0.000024185   -0.000136108    0.000182639
     23        1          -0.000004339   -0.000016923   -0.000014776
     24        1           0.000000941   -0.000001356   -0.000012365
     25       11          -0.000108775    0.000035262    0.000226590
 -------------------------------------------------------------------
 Cartesian Forces:  Max     0.000409110 RMS     0.000109313

 GradGradGradGradGradGradGradGradGradGradGradGradGradGradGradGradGradGrad
 Berny optimization.
 Using GEDIIS/GDIIS optimizer.
 Internal  Forces:  Max     0.000165114 RMS     0.000041526
 Search for a local minimum.
 Step number   2 out of a maximum of  150
 All quantities printed in internal units (Hartrees-Bohrs-Radians)
 Mixed Optimization -- En-DIIS/RFO-DIIS
 Swaping is turned off.
 Update second derivatives using D2CorX and points    1    2
 DE= -1.08D-05 DEPred=-7.46D-06 R= 1.45D+00
 SS=  1.41D+00  RLast= 2.83D-02 DXNew= 5.0454D-01 8.4871D-02
 Trust test= 1.45D+00 RLast= 2.83D-02 DXMaxT set to 3.00D-01
 ITU=  1  0
     Eigenvalues ---    0.00614   0.00774   0.00875   0.01263   0.01554
     Eigenvalues ---    0.01577   0.01600   0.01722   0.01947   0.02409
     Eigenvalues ---    0.02732   0.03427   0.03943   0.04383   0.04841
     Eigenvalues ---    0.05003   0.05129   0.05254   0.05528   0.05634
     Eigenvalues ---    0.06011   0.06261   0.06335   0.06678   0.06859
     Eigenvalues ---    0.07014   0.07127   0.07768   0.08487   0.08873
     Eigenvalues ---    0.09270   0.09797   0.10122   0.11994   0.12349
     Eigenvalues ---    0.13533   0.15823   0.15946   0.16000   0.16000
     Eigenvalues ---    0.16143   0.16940   0.18059   0.18713   0.19962
     Eigenvalues ---    0.24099   0.28829   0.29418   0.29742   0.30246
     Eigenvalues ---    0.33110   0.33481   0.33648   0.33671   0.33743
     Eigenvalues ---    0.34187   0.34372   0.37761   0.40563   0.41138
     Eigenvalues ---    0.42415   0.44024   0.44862   0.48971   0.54521
     Eigenvalues ---    0.54681   0.54714   0.54793   0.55150
 En-DIIS/RFO-DIIS IScMMF=        0 using points:     2    1
 RFO step:  Lambda=-1.40500016D-06.
 DidBck=F Rises=F RFO-DIIS coefs:    1.81961   -0.81961
 Iteration  1 RMS(Cart)=  0.00349982 RMS(Int)=  0.00001631
 Iteration  2 RMS(Cart)=  0.00001481 RMS(Int)=  0.00000427
 Iteration  3 RMS(Cart)=  0.00000000 RMS(Int)=  0.00000427
 Variable       Old X    -DE/DX   Delta X   Delta X   Delta X     New X
                                  (DIIS)     (GDIIS)  (Total)
    R1        2.88061  -0.00002   0.00014  -0.00001   0.00013   2.88073
    R2        2.61447   0.00005  -0.00027   0.00029   0.00002   2.61449
    R3        2.68066  -0.00001  -0.00063   0.00034  -0.00029   2.68038
    R4        2.08030   0.00000   0.00011   0.00002   0.00014   2.08044
    R5        2.86981  -0.00003   0.00014  -0.00043  -0.00030   2.86951
    R6        2.65958   0.00017   0.00058   0.00048   0.00106   2.66063
    R7        2.07953  -0.00003   0.00013  -0.00022  -0.00009   2.07944
    R8        2.87225  -0.00005   0.00033  -0.00059  -0.00026   2.87199
    R9        2.66605   0.00005   0.00055  -0.00005   0.00050   2.66655
   R10        2.08237   0.00000   0.00012  -0.00003   0.00009   2.08246
   R11        2.88804  -0.00007   0.00026  -0.00056  -0.00030   2.88774
   R12        2.66210   0.00007   0.00078  -0.00004   0.00074   2.66284
   R13        2.07874  -0.00002  -0.00005  -0.00010  -0.00015   2.07859
   R14        2.86042  -0.00002   0.00025  -0.00025   0.00000   2.86041
   R15        2.68681  -0.00007  -0.00078   0.00015  -0.00063   2.68618
   R16        2.07933   0.00000   0.00016  -0.00007   0.00009   2.07942
   R17        2.68741  -0.00007  -0.00059  -0.00005  -0.00064   2.68677
[...]
 0094730,-0.00027766,0.00064523,0.00182000,-0.00526942,0.00081146,0.028
 12142,0.10848306,-0.00487184,-0.00057242,0.00009793,0.00005540,0.00033
 234,0.00013208,-0.00013053,0.00049170,0.00011657,-0.00075875,-0.000340
 37,-0.00080726,-0.05232881,-0.09774079,-0.23402224,-0.00202509,-0.0036
 0494,-0.00495753,0.00072874,0.00059829,0.00015954,0.00043259,-0.000269
 55,0.00005073,-0.00007178,0.00003881,0.00019876,-0.00050333,-0.0004766
 8,0.00137375,0.00624517,-0.00151915,-0.03332159,-0.00083991,0.00017307
 ,0.00104614,0.00152330,0.00021800,0.00045671,-0.00010560,0.00002949,0.
 00001795,0.00054169,-0.00014403,0.00014482,0.00029733,0.00043033,0.000
 26044,0.05178211,0.10225590,0.26794457,-0.00214648,-0.02128459,-0.0005
 3772,0.00004834,0.00060820,0.00095413,0.00007324,-0.00001872,0.0001501
 0,0.00010202,-0.00004064,-0.00018529,-0.00075644,0.00023671,0.00079676
 ,-0.00005339,0.00004225,-0.00002609,-0.01287491,0.02929196,0.01842825,
 0.00088271,-0.00004683,-0.00024243,0.00001241,0.00017426,-0.00010635,0
 .00001594,0.00019376,-0.00008627,0.00047391,-0.00059605,0.00024788,0.0
 0007331,0.00001459,0.00003321,-0.00033941,0.00064404,0.00063247,-0.000
 05020,0.00006456,0.00003442,-0.00001270,-0.00001059,-0.00001277,-0.000
 00095,-0.00001791,0.00000535,-0.00001275,-0.00001862,-0.00008376,0.014
 28444,-0.00010580,-0.01893383,-0.00220869,-0.00146118,-0.00051380,0.00
 335882,0.00066090,-0.00024998,-0.00031392,0.00008166,-0.00023861,-0.00
 007749,-0.00012237,-0.00046588,0.00085827,-0.00006819,0.00021119,-0.00
 028867,0.00698357,-0.51668047,-0.04462956,-0.00044899,0.00062056,-0.00
 033045,-0.00010356,0.00000372,0.00007358,0.00000929,0.00025645,-0.0001
 3277,0.00195821,0.00113854,-0.00165791,0.00017197,0.00002188,0.0001244
 6,0.00111832,0.00287578,-0.00162788,-0.00004699,0.00059526,0.00009903,
 -0.00004457,0.00000847,0.00010616,-0.00001030,0.00002015,0.00000590,-0
 .00002220,0.00003436,-0.00008970,-0.00849128,0.53166933,-0.00022173,0.
 04234473,-0.00212515,0.00409442,0.00233118,-0.00537316,-0.00086455,0.0
 0102808,0.00109020,-0.00024542,-0.00002588,0.00009004,0.00017009,0.000
 14179,-0.00009085,0.00004243,-0.00004760,-0.00002588,0.01783884,-0.092
 60876,-0.04399917,-0.00004601,-0.00047082,0.00032359,0.00020857,0.0008
 4655,-0.00057667,0.00010417,-0.00002899,-0.00003391,-0.00021883,-0.001
 20464,0.00036080,-0.00003691,-0.00000407,-0.00002544,-0.00081460,0.000
 62818,0.00056461,0.00010651,-0.00003059,0.00027664,-0.00004037,-0.0000
 9010,-0.00004419,0.00002540,-0.00000343,-0.00000027,0.00001843,-0.0000
 0761,-0.00001999,-0.02001252,0.04730066,0.04970708,-0.00229795,0.00072
 184,0.00216842,-0.02758376,-0.01699045,0.03257461,-0.00746519,0.001615
 74,-0.00274157,0.00048550,-0.00104677,0.00135458,-0.00027441,-0.000358
 82,0.00056564,-0.00003724,0.00009269,-0.00010642,0.00121050,-0.0011445
 7,-0.00011678,-0.15586985,-0.08302789,0.15928598,0.00094414,0.00066258
 ,-0.00037724,-0.00075290,-0.00003597,0.00014489,0.00179081,-0.00051834
 ,-0.00035715,0.00006851,0.00001600,0.00003967,0.00002426,-0.00001781,-
 0.00011132,0.00176325,-0.00071299,-0.00013747,0.00027483,0.00021605,-0
 .00024215,-0.00002707,0.00000541,-0.00011529,0.00000520,0.00003677,-0.
 00006572,0.00052414,0.00029831,-0.00020072,0.18751617,0.00355666,0.001
 51603,-0.00197944,0.00272546,-0.00032170,-0.00303790,0.00020653,-0.001
 03580,-0.00011077,0.00011936,0.00025610,0.00033188,-0.00008456,0.00012
 314,-0.00012905,0.00000456,-0.00002930,0.00004776,-0.00141422,0.000868
 68,0.00013687,-0.10539958,-0.08775665,0.16352109,-0.00067160,0.0006088
 2,0.00001240,-0.00004650,0.00000410,-0.00001038,-0.00047324,-0.0005197
 4,0.00038422,-0.00001926,-0.00000860,-0.00001387,-0.00006942,-0.000102
 19,0.00003527,0.00074445,0.00012681,0.00102835,0.00004937,0.00001772,0
 .00006185,0.00005000,-0.00003263,-0.00003918,-0.00000763,-0.00000844,0
 .00002196,-0.00049813,-0.00021790,0.00005576,0.10083079,0.08578976,-0.
 00015785,-0.00083809,0.00042077,-0.00993914,-0.00463692,0.00744900,-0.
 00186243,0.00062960,-0.00016147,0.00010743,-0.00003802,0.00071950,0.00
 029680,0.00000805,-0.00030765,0.00005285,0.00000382,0.00006248,-0.0002
 9233,-0.00000531,-0.00053723,0.20588757,0.16538756,-0.32584827,-0.0000
 2929,-0.00042564,0.00020231,-0.00057591,-0.00017328,0.00022181,-0.0008
 7699,0.00067104,-0.00021269,-0.00006490,-0.00000402,-0.00005131,0.0001
 5638,-0.00000639,-0.00006379,-0.00138926,-0.00040638,0.00073308,-0.000
 12421,0.00000749,0.00045477,0.00011141,-0.00003090,0.00000730,0.000008
 09,0.00000680,0.00002485,0.00034839,-0.00013832,-0.00018676,-0.1915723
 5,-0.16007196,0.31731268,-0.00077846,0.00039868,0.00008882,0.00180062,
 -0.00183906,-0.00028265,-0.00759706,0.00018233,-0.00142458,0.00001232,
 0.00141554,0.00095581,-0.00020685,-0.00021204,0.00002979,-0.00002521,0
 .00007693,0.00002042,-0.00002885,-0.00054821,0.00026175,-0.00007554,0.
 00036542,-0.00050697,-0.50613088,0.06653551,-0.08656083,0.00071754,0.0
 0032695,-0.00053169,0.00003266,0.00002170,0.00001298,0.00006375,-0.000
 02536,0.00003743,0.00002924,-0.00002064,0.00000292,-0.00008242,0.00017
 171,-0.00004550,0.00058121,-0.00174559,-0.00015642,0.00037507,-0.00004
 389,0.00016529,-0.00003238,0.00005097,0.00001852,0.00001973,-0.0000105
 0,0.00008195,-0.00018878,0.00032153,-0.00012423,0.51150655,0.00074285,
 -0.00048546,-0.00024180,0.00225186,-0.00061456,0.00178282,0.04524565,-
 0.01169461,0.00767959,0.00000384,-0.00800433,0.00018739,0.00222742,0.0
 0070333,-0.00000491,-0.00010210,-0.00068655,-0.00003600,-0.00015861,0.
 00053725,-0.00021268,0.00013686,0.00127536,-0.00135258,0.01668883,-0.0
 4500369,0.00097305,-0.00086888,0.00079057,0.00005135,-0.00075428,0.000
 27719,0.00001455,-0.00000356,0.00004993,0.00004915,-0.00002053,0.00003
 323,-0.00002174,-0.00018951,-0.00005457,-0.00002549,0.00002536,0.00086
 689,-0.00058540,-0.00024156,0.00010544,0.00008942,-0.00001954,0.000030
 20,-0.00001899,-0.00002902,-0.00001883,-0.00005386,-0.00073715,0.00067
 336,-0.00000542,-0.06519037,0.06133252,-0.00039996,0.00048317,0.000190
 61,-0.00185660,0.00091033,-0.00027643,0.00121254,-0.00136915,-0.001196
 78,0.00036237,0.00051930,-0.00058850,0.00007028,0.00001118,0.00060099,
 0.00001133,-0.00008460,0.00001191,0.00003586,-0.00044943,0.00014317,-0
 .00006234,-0.00126265,0.00040107,-0.08884743,0.00991187,-0.01906862,0.
 00044050,-0.00073460,0.00033284,0.00031373,-0.00019296,-0.00001715,0.0
 0002436,-0.00000097,0.00001428,0.00001652,-0.00008911,-0.00003849,0.00
 005264,0.00012783,-0.00017663,0.00088125,0.00013822,0.00055649,0.00030
 110,0.00004354,0.00021151,-0.00002326,0.00011349,-0.00004901,0.0000164
 7,0.00000195,0.00004809,0.00020424,-0.00028478,-0.00029350,0.08818881,
 -0.00770774,0.01896679,0.00102643,-0.00021788,-0.00003958,-0.00002968,
 0.00010967,0.00039780,-0.00043750,-0.00432464,0.00136705,0.00553910,-0
 .02507592,0.00629138,-0.00297700,-0.00042700,0.00274509,-0.00053516,0.
 00032069,0.00037550,-0.00016710,0.00023035,-0.00002895,0.00027580,0.00
 025715,-0.00025805,0.00201841,0.00060248,-0.00062472,-0.08681637,0.189
 02382,-0.01300201,-0.00033078,-0.00202497,0.00114848,0.00010350,-0.000
 04374,-0.00020651,-0.00006429,0.00003132,-0.00002130,0.00002978,0.0000
 2035,-0.00009307,-0.00030477,0.00009329,-0.00008780,-0.00006098,0.0004
 6035,0.00058991,-0.00008335,0.00017669,-0.00006803,0.00001360,0.000023
 41,-0.00003735,0.00000725,0.00001963,0.00003790,0.00002257,0.00079082,
 -0.00091042,0.08223929,0.00021397,-0.00048695,0.00013597,0.00022256,-0
 .00080924,0.00061569,0.00061509,0.00079273,-0.00145819,0.00424484,-0.0
 1763093,0.00363472,-0.00179523,0.00023897,0.00255135,0.00008211,0.0004
 1431,-0.00003632,0.00000249,0.00022989,-0.00011936,0.00074553,0.000324
 63,-0.00044845,0.00007071,0.00034375,-0.00040401,0.15548049,-0.4456432
 6,0.07640391,0.00023672,-0.00038334,0.00003109,-0.00014370,0.00001161,
 -0.00011643,-0.00003071,0.00003439,0.00001330,0.00002556,0.00003214,-0
 .00008836,-0.00041407,-0.00017637,0.00002249,0.00072534,0.00089112,-0.
 00113506,-0.00004765,0.00042185,-0.00001558,-0.00000203,-0.00000748,-0
 .00001515,0.00009870,0.00001649,0.00007082,-0.00020810,-0.00009654,-0.
 00006906,-0.16016362,0.46150059,-0.00056675,0.00012992,-0.00000446,-0.
 00014694,0.00007553,-0.00025102,0.00068263,0.00131980,0.00132111,-0.00
 913182,0.03558135,-0.01006004,0.00253658,-0.00090304,-0.00361227,0.000
 17427,-0.00022704,-0.00004490,0.00010340,-0.00009506,-0.00000755,-0.00
 018934,-0.00020004,0.00013196,-0.00082582,-0.00025947,-0.00040398,0.00
 489815,0.04270215,-0.03139652,0.00064160,0.00197347,-0.00029397,0.0000
 3135,-0.00006232,0.00016368,0.00006027,-0.00001630,0.00001316,0.000008
 58,0.00001094,-0.00004303,-0.00004535,-0.00024032,-0.00008993,-0.00071
 200,0.00017631,0.00016541,-0.00000905,0.00017977,0.00021849,-0.0000132
 1,-0.00001383,0.00001810,-0.00000990,-0.00001572,-0.00003481,-0.000173
 86,-0.00063385,0.00025281,0.00284629,-0.07955677,0.04396762,-0.0003129
 5,-0.00012467,-0.00015574,-0.00005034,0.00001870,0.00005940,-0.0001935
 9,-0.00005835,-0.00002462,0.00035478,0.00007571,0.00000145,0.00038452,
 -0.00082995,-0.00034457,-0.00484298,0.00158532,0.00220374,0.00014140,0
 .00007668,-0.00008159,0.00009144,-0.00001713,-0.00001659,0.00014840,-0
 .00010178,0.00001670,0.00004603,-0.00014039,0.00005369,0.00082371,0.00
 024482,-0.00047149,-0.52307633,0.01854035,-0.09716129,-0.00003066,0.00
 000867,0.00004543,0.00000073,0.00000016,-0.00000822,0.00000982,0.00001
 030,0.00001465,-0.00001820,-0.00004668,0.00004637,0.00007249,0.0001526
 6,0.00022790,-0.00001026,-0.00001923,-0.00000033,-0.00000670,0.0000023
 8,0.00000875,-0.00000516,-0.00001632,-0.00000627,0.00002710,0.00002777
 ,-0.00002626,0.52595139,0.00007771,-0.00006453,-0.00017480,-0.00003717
 ,-0.00004121,0.00003005,-0.00008725,0.00014040,0.00016210,0.00034721,0
 .00002181,-0.00022695,-0.00003012,-0.00159540,-0.00148579,-0.01513058,
 -0.00194930,-0.00482843,0.00000441,0.00000238,0.00002900,0.00002923,0.
 00002473,-0.00001594,0.00003411,-0.00004330,0.00000015,-0.00009773,-0.
 00001823,0.00023477,-0.00013948,0.00021965,-0.00019693,0.03719264,-0.0
 0747826,-0.00635665,-0.00004823,0.00000033,0.00002178,-0.00000790,0.00
 000600,0.00000154,0.00010837,-0.00003666,0.00001457,-0.00010250,0.0003
 7230,0.00018144,-0.00041141,0.00035707,-0.00006815,-0.00000035,0.00000
 536,-0.00000356,0.00000256,-0.00000145,0.00000038,-0.00000391,-0.00000
 090,0.00000148,-0.00000941,0.00002591,0.00000254,-0.02097403,0.0095663
 0,-0.00049263,-0.00000124,0.00021567,-0.00000845,0.00004022,0.00000290
 ,-0.00003898,0.00003420,-0.00000172,0.00038213,-0.00048884,-0.00014527
 ,-0.00028588,-0.00294504,-0.00768438,-0.04134335,0.00099878,-0.0120237
 2,0.00006102,0.00007466,-0.00006222,0.00006904,-0.00003914,0.00000195,
 -0.00000083,-0.00000062,0.00003144,0.00006290,-0.00006618,0.00016010,0
 .00180771,0.00029781,0.00067308,-0.05208449,-0.01142375,-0.04803634,0.
 00017791,0.00002064,0.00005720,-0.00001195,-0.00000030,0.00000580,0.00
 004931,0.00001660,0.00004361,-0.00001591,0.00024041,0.00009049,-0.0017
 7515,0.00023597,-0.00005711,-0.00000996,-0.00001838,0.00000037,-0.0000
 0949,0.00000267,0.00000692,-0.00000228,0.00000383,-0.00000093,0.000020
 95,0.00002276,-0.00001828,0.09262852,0.01255754,0.06416091,-0.00007178
 ,-0.00004186,-0.00021165,0.00038896,0.00017091,-0.00020254,0.00122731,
 0.00153306,0.00016755,-0.00705723,-0.00205137,-0.00038148,-0.00954672,
 0.03472967,-0.00104778,-0.06201704,0.04957137,0.00417435,0.00004542,-0
 .00006655,-0.00000011,-0.00015671,-0.00012472,0.00010070,-0.00118905,0
 .00055592,-0.00015655,0.00068041,-0.00038911,-0.00013781,0.00341223,-0
 .00038732,-0.00036591,0.00409703,-0.00867640,-0.00522564,0.00003725,0.
 00000987,0.00001656,-0.00001578,-0.00000696,0.00003235,-0.00005296,-0.
 00002988,-0.00005706,0.00009739,-0.00011721,0.00016403,0.00133016,-0.0
 0038976,0.00011498,-0.00000489,-0.00000671,0.00000736,-0.00001513,0.00
 000415,-0.00001522,0.00000481,0.00020679,0.00001744,0.00014936,-0.0000
 9489,0.00003466,0.00032831,-0.00069615,0.00022860,0.06290383,-0.000246
 44,0.00018193,-0.00000917,-0.00018688,-0.00004941,0.00007945,-0.000413
 84,-0.00021950,-0.00002474,0.00043699,0.00149975,0.00079713,-0.0000728
 6,-0.00522201,0.00159619,0.05140360,-0.30139218,-0.00017093,0.00012970
 ,0.00006393,-0.00008578,0.00011053,0.00003300,-0.00003465,0.00031687,-
 0.00015618,0.00001743,0.00026405,-0.00034040,0.00001641,0.00003058,0.0
 0087437,-0.00061060,-0.00164629,-0.00839562,-0.01301262,0.00002196,-0.
 00001046,0.00001224,0.00001370,0.00000531,-0.00000232,0.00002529,0.000
 00281,0.00001245,-0.00016578,0.00015794,-0.00006767,0.00055898,0.00048
 117,0.00017146,-0.00000247,-0.00001818,-0.00000006,-0.00000083,0.00000
 232,0.00000921,-0.00003106,-0.00003444,-0.00002472,0.00006045,0.000085
 25,-0.00002970,0.00065999,0.00012762,-0.00040346,-0.05560997,0.3256404
 6,0.00019810,0.00004742,-0.00002261,0.00013967,0.00005443,-0.00009831,
 0.00051058,0.00038555,0.00008372,-0.00169092,-0.00042575,0.00015029,-0
 .00024000,0.00754913,0.00019770,0.00111512,0.00363479,-0.04766102,-0.0
 0009032,-0.00006461,0.00007112,-0.00013551,-0.00002017,0.00004353,-0.0
 0048268,0.00024738,-0.00006792,-0.00038842,0.00024384,0.00007701,0.000
 06746,-0.00090519,0.00028758,0.00248546,-0.04074663,-0.01783662,-0.000
 00149,0.,-0.00001026,-0.00001209,-0.00000697,0.00000934,-0.00003101,-0
 .00001772,-0.00001898,-0.00005943,0.00014094,0.00004686,0.00015404,0.0
 0050155,0.00008209,0.00001043,0.00001462,0.00000088,0.00000060,-0.0000
 0132,-0.00001266,0.00000344,0.00005782,0.00001269,-0.00013048,-0.00011
 770,0.00005199,0.00139594,-0.00006221,0.00081903,0.00223415,0.01108707
 ,0.06123607,0.00214503,-0.00010380,0.00120912,0.00003868,-0.00039306,-
 0.00002562,-0.00016941,-0.00033723,0.00009379,0.00021307,-0.00045697,0
 .00129093,-0.01241353,-0.01664194,0.02139540,-0.13740826,-0.07297959,0
 .09951842,-0.00121155,-0.00048795,0.00070235,-0.00026035,0.00026033,-0
 .00006853,0.00021462,0.00008454,-0.00005641,0.00058349,-0.00014938,-0.
 00024238,-0.00993766,0.00074723,-0.00111395,0.00778638,0.00317436,-0.0
 1006556,-0.00018478,-0.00001216,-0.00010892,0.00000400,0.00002668,0.00
 000047,0.00002156,0.00000830,-0.00000027,-0.00008212,0.00029014,-0.000
 07605,0.00057592,-0.00021478,-0.00055770,0.00004088,0.00015246,-0.0000
 0816,0.00006919,-0.00002524,-0.00002355,0.00001068,-0.00003385,-0.0000
 1193,0.00038844,0.00010849,-0.00018935,0.00119816,0.00084017,-0.000121
 89,0.00555787,0.00455723,-0.00474720,0.14299415,0.00027948,0.00050638,
 -0.00016308,-0.00005070,-0.00000944,-0.00007290,0.00004482,0.00011338,
 0.00007886,-0.00030683,0.00010377,-0.00028771,0.00413277,0.00204746,-0
 .00373078,-0.07888419,-0.11983688,0.09182667,0.00012866,-0.00001444,-0
 .00002142,-0.00008428,0.00002301,0.00001632,-0.00011273,0.00006749,-0.
 00000993,0.00069423,-0.00099346,0.00032660,0.00123432,0.00042220,0.000
 05350,0.00906760,0.00920715,-0.01614233,0.00000385,-0.00000307,-0.0000
 1053,-0.00000031,-0.00000631,0.00000614,0.00000207,-0.00000588,-0.0000
 0602,-0.00010897,-0.00006028,-0.00002584,-0.00040120,0.00005688,0.0001
 1464,0.00001183,0.00000235,0.00000156,0.00000181,-0.00000205,-0.000007
 89,0.00000312,0.00001808,0.00000293,0.00006982,-0.00009238,0.00008101,
 0.00083022,0.00065875,0.00111751,-0.01808674,-0.01304763,0.01870869,0.
 08161230,0.12096057,0.00043134,0.00013340,0.00050717,-0.00004039,-0.00
 011089,-0.00002535,-0.00006471,-0.00011853,0.00000771,0.00085104,0.000
 38684,-0.00034144,0.00037964,-0.00360058,0.00508128,0.09543343,0.08642
 292,-0.16107656,-0.00043583,-0.00020586,0.00022057,-0.00009487,0.00007
 755,-0.00001097,0.00001952,0.00001306,-0.00000481,-0.00076814,0.001015
 14,-0.00023223,-0.00386607,0.00041172,0.00105103,0.01290046,0.00760297
 ,-0.03808546,-0.00003538,-0.00001380,-0.00004209,-0.00000302,0.0000055
 3,0.00000088,0.00000801,-0.00000013,-0.00000200,0.00002189,0.00002674,
 -0.00001730,0.00076322,-0.00042787,0.00013698,0.00000542,0.00004349,-0
 .00000054,0.00001740,-0.00000512,-0.00000883,-0.00000095,-0.00002067,0
 .00001289,-0.00025678,0.00000042,-0.00006668,0.00154919,-0.00009558,0.
 00104344,0.00033302,0.00053660,0.00241450,-0.10649584,-0.09174156,0.18
 914056,-0.00205982,0.00014255,-0.00346790,-0.00038222,0.00019039,-0.00
 018103,0.00010214,0.00027076,-0.00026374,-0.00013041,0.00011457,0.0001
 8543,0.00215723,0.00062839,-0.00094380,0.00109005,0.00067570,0.0033539
 4,0.00106285,0.00063627,0.00141294,0.00048076,-0.00024633,0.00018021,-
 0.00001396,-0.00025709,0.00011325,-0.00011067,-0.00029281,0.00015607,-
 0.00340957,-0.00023503,-0.00195177,-0.00690811,-0.00146793,0.00286554,
 0.00005500,0.00004391,0.00030134,-0.00002875,0.00018540,0.00011672,-0.
 00003687,-0.00000805,0.00004980,0.00006084,-0.00007545,0.00004346,-0.0
 0039467,-0.00015788,0.00044311,-0.00030231,-0.00049622,0.00004933,-0.0
 0016477,0.00007450,0.00003209,-0.00002517,0.00004497,-0.00003122,-0.00
 003365,-0.00000037,0.00002190,-0.00103111,-0.00086019,0.00071315,-0.00
 013306,-0.00021349,-0.00030543,-0.00017445,-0.00008094,-0.00065161,0.0
 1033072,0.00051358,0.00038116,-0.00015723,0.00020587,0.00016373,0.0001
 8604,0.00012328,-0.00006137,-0.00003228,-0.00005691,-0.00000309,0.0006
 1193,0.00034515,0.00021011,0.00084093,0.00062770,0.00075814,0.00100904
 ,0.00070218,0.00013760,0.00062338,-0.00010471,-0.00009753,-0.00004254,
 -0.00007334,0.00005186,-0.00000742,0.00002863,0.00003707,-0.00027383,-
 0.00070203,-0.00133161,-0.00107217,-0.00256201,-0.00294617,0.00322493,
 -0.00008586,-0.00003849,0.00001012,0.00003466,-0.00010208,-0.00011218,
 -0.00004088,0.00000951,-0.00002246,-0.00003283,-0.00039486,-0.00015424
 ,-0.00014182,-0.00007666,-0.00001566,-0.00022494,-0.00011845,-0.000083
 39,-0.00000764,0.00003312,-0.00000624,0.00000833,0.00000116,0.00000446
 ,-0.00000313,-0.00003715,0.00002067,0.00009478,-0.00029935,-0.00027665
 ,-0.00000617,-0.00026984,-0.00030496,-0.00002629,-0.00011563,-0.000335
 81,0.00138439,0.00410882,-0.00569242,-0.00107534,-0.00045490,-0.000349
 77,0.00068541,0.00009422,-0.00041818,0.00049889,-0.00036589,-0.0000792
 0,0.00089609,-0.00035391,0.00194388,0.00142430,-0.00477628,0.00089974,
 -0.00036536,-0.00440772,0.00282923,0.00118345,0.00043269,0.00111582,-0
 .00056937,0.00009537,0.00034588,-0.00062501,0.00017539,-0.00009080,-0.
 00098387,0.00075444,-0.00252054,-0.00049154,-0.00916027,0.00411511,0.0
 0268851,-0.00499513,0.00081056,0.00008860,0.00040814,-0.00004574,0.000
 06881,0.00003870,0.00004767,-0.00001079,0.00007912,-0.00000921,0.00033
 647,0.00009688,0.00006829,-0.00012887,0.00077233,-0.00034693,-0.000459
 40,0.00002158,-0.00019246,0.00005942,0.00010349,-0.00005797,0.00003216
 ,-0.00005009,-0.00005527,0.00007792,0.00002311,0.00004524,0.00027767,0
 .00071705,0.00017601,0.00014078,0.00014399,-0.00029719,-0.00011445,0.0
 0029724,-0.00224176,-0.00363447,0.02031046\\0.00000249,0.00000070,0.00
 001147,0.00000204,0.00000097,0.00000887,-0.00000479,-0.00000304,0.0000
 0151,-0.00000361,-0.00000186,-0.00000699,-0.00000271,-0.00000176,-0.00
 000401,-0.00000097,0.00000020,-0.00001207,0.00000897,0.00000511,0.0000
 1688,0.00000033,-0.00000086,0.00001694,-0.00000523,-0.00000298,-0.0000
 0167,-0.00001086,-0.00000583,-0.00001390,0.00000389,0.00000250,0.00000
 340,0.00000674,0.00000408,-0.00001492,-0.00000294,-0.00000254,0.000015
 03,0.00000792,0.00000452,0.00000577,-0.00001069,-0.00000683,0.00000478
 ,0.00000201,0.00000175,-0.00001061,-0.00000855,-0.00000519,-0.00000066
 ,0.00000987,0.00000459,0.00002101,0.00000491,0.00000201,0.00002146,-0.
 00000616,-0.00000396,0.00000356,-0.00001118,-0.00000613,-0.00001460,0.
 00000814,0.00000659,-0.00002135,-0.00000079,-0.00000010,-0.00000925,-0
 .00000575,-0.00000245,-0.00001765,0.00001693,0.00001050,-0.00000302\\\
 @


 I FIND THAT THE THREE TRULY GREAT TIMES FOR THINKING THOUGHTS
 ARE WHEN I AM STANDING IN THE SHOWER, SITTING ON THE JOHN, OR WALKING.

                                    -- COLIN FLETCHER
 Job cpu time:  0 days  0 hours  0 minutes 20.3 seconds.
 File lengths (MBytes):  RWF=    980 Int=      0 D2E=      0 Chk=     22 Scr=      8
 Normal termination of Gaussian 09 at Fri Apr 13 19:27:09 2012.
