'c0927-ib c0937-ib'
 Entering Gaussian System, Link 0=g09
 Initial command:
 /usr/common/usg/g09/b11/g09/l1.exe /global/scratch/sd/hmayes/g09/2191210.cvrsvc09-ib/Gau-24458.inp -scrdir=/global/scratch/sd/hmayes/g09/2191210.cvrsvc09-ib/
 Entering Link 1 = /usr/common/usg/g09/b11/g09/l1.exe PID=     24459.
  
 Copyright (c) 1988,1990,1992,1993,1995,1998,2003,2009,2010,
            Gaussian, Inc.  All Rights Reserved.
  
 This is part of the Gaussian(R) 09 program.  It is based on
 the Gaussian(R) 03 system (copyright 2003, Gaussian, Inc.),
 the Gaussian(R) 98 system (copyright 1998, Gaussian, Inc.),
 the Gaussian(R) 94 system (copyright 1995, Gaussian, Inc.),
 the Gaussian 92(TM) system (copyright 1992, Gaussian, Inc.),
 the Gaussian 90(TM) system (copyright 1990, Gaussian, Inc.),
 the Gaussian 88(TM) system (copyright 1988, Gaussian, Inc.),
 the Gaussian 86(TM) system (copyright 1986, Carnegie Mellon
 University), and the Gaussian 82(TM) system (copyright 1983,
 Carnegie Mellon University). Gaussian is a federally registered
 trademark of Gaussian, Inc.
  
 This software contains proprietary and confidential information,
 including trade secrets, belonging to Gaussian, Inc.
  
 This software is provided under written license and may be
 used, copied, transmitted, or stored only in accord with that
 written license.
  
 The following legend is applicable only to US Government
 contracts under FAR:
  
                    RESTRICTED RIGHTS LEGEND
  
 Use, reproduction and disclosure by the US Government is
 subject to restrictions as set forth in subparagraphs (a)
 and (c) of the Commercial Computer Software - Restricted
 Rights clause in FAR 52.227-19.
  
 Gaussian, Inc.
 340 Quinnipiac St., Bldg. 40, Wallingford CT 06492
  
  
 ---------------------------------------------------------------
 Warning -- This program may not be used in any manner that
 competes with the business of Gaussian, Inc. or will provide
 assistance to any competitor of Gaussian, Inc.  The licensee
 of this program is prohibited from giving any competitor of
 Gaussian, Inc. access to this program.  By using this program,
 the user acknowledges that Gaussian, Inc. is engaged in the
 business of creating and licensing software in the field of
 computational chemistry and represents and warrants to the
 licensee that it is not a competitor of Gaussian, Inc. and that
 it will not use this program in any manner prohibited above.
 ---------------------------------------------------------------
  

 Cite this work as:
 Gaussian 09, Revision B.01,
 M. J. Frisch, G. W. Trucks, H. B. Schlegel, G. E. Scuseria, 
 M. A. Robb, J. R. Cheeseman, G. Scalmani, V. Barone, B. Mennucci, 
 G. A. Petersson, H. Nakatsuji, M. Caricato, X. Li, H. P. Hratchian, 
 A. F. Izmaylov, J. Bloino, G. Zheng, J. L. Sonnenberg, M. Hada, 
 M. Ehara, K. Toyota, R. Fukuda, J. Hasegawa, M. Ishida, T. Nakajima, 
 Y. Honda, O. Kitao, H. Nakai, T. Vreven, J. A. Montgomery, Jr., 
 J. E. Peralta, F. Ogliaro, M. Bearpark, J. J. Heyd, E. Brothers, 
 K. N. Kudin, V. N. Staroverov, T. Keith, R. Kobayashi, J. Normand, 
 K. Raghavachari, A. Rendell, J. C. Burant, S. S. Iyengar, J. Tomasi, 
 M. Cossi, N. Rega, J. M. Millam, M. Klene, J. E. Knox, J. B. Cross, 
 V. Bakken, C. Adamo, J. Jaramillo, R. Gomperts, R. E. Stratmann, 
 O. Yazyev, A. J. Austin, R. Cammi, C. Pomelli, J. W. Ochterski, 
 R. L. Martin, K. Morokuma, V. G. Zakrzewski, G. A. Voth, 
 P. Salvador, J. J. Dannenberg, S. Dapprich, A. D. Daniels, 
 O. Farkas, J. B. Foresman, J. V. Ortiz, J. Cioslowski, 
 and D. J. Fox, Gaussian, Inc., Wallingford CT, 2010.
 
 ******************************************
 Gaussian 09:  EM64L-G09RevB.01 12-Aug-2010
                12-Apr-2012 
 ******************************************
 %chk=/global/u1/h/hmayes/gaussian/glucose/glucNa3eO4areactt.chk
 %mem=16GB
 %nprocshared=8
 Will use up to    8 processors via shared memory.
 %nproclinda=2
 Will use up to    2 processors via Linda.
 ----------------------------------------------------------------------
 # opt m062x/6-31+g(2df,p) nosymm scrf=(cpcm,solvent=water,read) scf=(x
 qc,conver=6,maxcycle=1000) geom=allcheck guess=read
 ----------------------------------------------------------------------
 1/14=-1,18=20,19=15,26=3,29=7,38=1,40=2/1,3;
 2/9=110,12=2,15=1,40=1/2;
 3/5=1,6=6,7=114,11=2,14=-4,16=1,25=1,30=1,70=2103,71=1,72=1,74=-55,116=-2/1,2,3;
 4/5=1/1;
 5/5=2,6=6,7=1000,8=3,13=1,38=6,53=1/2,8;
 6/7=2,8=2,9=2,10=2,28=1/1;
 7/30=1/1,2,3,16;
 1/14=-1,18=20,19=15/3(2);
 2/9=110,15=1/2;
 99//99;
 2/9=110,15=1/2;
 3/5=1,6=6,7=114,11=2,14=-2,16=1,25=1,30=1,70=2105,71=1,72=1,74=-55/1,2,3;
 4/5=5,16=3/1;
 5/5=2,6=6,7=1000,8=3,13=1,38=5,53=1/2,8;
 7/30=1/1,2,3,16;
 1/14=-1,18=20,19=15/3(-5);
 2/9=110,15=1/2;
 6/7=2,8=2,9=2,10=2,19=2,28=1/1;
 99/9=1/99;
 -------------------------------------
 glucNa3eO4areact from glucNa3eO4aircf
 -------------------------------------
 Redundant internal coordinates taken from checkpoint file:
 /global/u1/h/hmayes/gaussian/glucose/glucNa3eO4areactt.chk
 Charge =  1 Multiplicity = 1
 C,0,0.0773714049,0.3948486381,0.4530891233
 C,0,-0.5935364783,1.7059026943,0.059069306
 C,0,-0.2770812829,2.0164954939,-1.3870526081
 C,0,1.2276378277,2.028735364,-1.6068568283
 C,0,1.8127564114,0.6987101839,-1.1201591012
 C,0,3.3271568328,0.6601333896,-1.1862916391
 O,0,-0.1671641881,0.201668961,1.8006391246
 O,0,-1.9981884474,1.6221376371,0.1891366376
 O,0,-0.8646276021,3.2633845166,-1.7076484274
 O,0,1.423286415,2.2230609575,-2.9929109164
 O,0,1.4682667169,0.5008789784,0.2446613937
 O,0,3.829019159,-0.5828134025,-0.7481227113
 H,0,-0.3225359423,-0.4346966384,-0.152360449
 H,0,-0.1901178987,2.4989294728,0.7049300826
 H,0,-0.7102866093,1.229054462,-2.0240032659
 H,0,1.666326482,2.8529341551,-1.027346238
 H,0,1.4007942791,-0.1200534282,-1.7324070276
 H,0,0.0104915929,-0.7149408162,2.0372764699
 H,0,-2.2039601848,1.3668217264,1.0965653952
 H,0,-0.5679707946,3.5080109356,-2.5931048748
 H,0,2.2500343396,2.6890656746,-3.1482304235
 H,0,3.4803343299,-0.7399027095,0.1368426326
 H,0,3.6541573692,0.7918968133,-2.2204227452
 H,0,3.7308983372,1.4850016747,-0.5817801368
 Na,0,-3.1165140691,3.3403202659,-0.9931507729
 Recover connectivity data from disk.

 GradGradGradGradGradGradGradGradGradGradGradGradGradGradGradGradGradGrad
 Berny optimization.
 Initialization pass.
                           ----------------------------
                           !    Initial Parameters    !
                           ! (Angstroms and Degrees)  !
 --------------------------                            --------------------------
 ! Name  Definition              Value          Derivative Info.                !
 --------------------------------------------------------------------------------
 ! R1    R(1,2)                  1.5245         estimate D2E/DX2                !
 ! R2    R(1,7)                  1.3831         estimate D2E/DX2                !
 ! R3    R(1,11)                 1.4104         estimate D2E/DX2                !
 ! R4    R(1,13)                 1.1021         estimate D2E/DX2                !
 ! R5    R(2,3)                  1.5126         estimate D2E/DX2                !
 ! R6    R(2,8)                  1.4131         estimate D2E/DX2                !
 ! R7    R(2,14)                 1.0994         estimate D2E/DX2                !
 ! R8    R(3,4)                  1.5207         estimate D2E/DX2                !
 ! R9    R(3,9)                  1.4152         estimate D2E/DX2                !
 ! R10   R(3,15)                 1.1016         estimate D2E/DX2                !
 ! R11   R(4,5)                  1.5324         estimate D2E/DX2                !
 ! R12   R(4,10)                 1.4132         estimate D2E/DX2                !
 ! R13   R(4,16)                 1.0989         estimate D2E/DX2                !
 ! R14   R(5,6)                  1.5163         estimate D2E/DX2                !
 ! R15   R(5,11)                 1.4215         estimate D2E/DX2                !
 ! R16   R(5,17)                 1.1022         estimate D2E/DX2                !
 ! R17   R(6,12)                 1.4102         estimate D2E/DX2                !
 ! R18   R(6,23)                 1.0926         estimate D2E/DX2                !
 ! R19   R(6,24)                 1.0995         estimate D2E/DX2                !
 ! R20   R(7,18)                 0.9632         estimate D2E/DX2                !
 ! R21   R(8,19)                 0.9649         estimate D2E/DX2                !
 ! R22   R(8,25)                 2.3666         estimate D2E/DX2                !
 ! R23   R(9,20)                 0.9653         estimate D2E/DX2                !
 ! R24   R(9,25)                 2.3638         estimate D2E/DX2                !
 ! R25   R(10,21)                0.9617         estimate D2E/DX2                !
 ! R26   R(12,22)                0.9641         estimate D2E/DX2                !
 ! A1    A(2,1,7)              107.1043         estimate D2E/DX2                !
 ! A2    A(2,1,11)             109.3379         estimate D2E/DX2                !
 ! A3    A(2,1,13)             110.2198         estimate D2E/DX2                !
 ! A4    A(7,1,11)             109.1978         estimate D2E/DX2                !
 ! A5    A(7,1,13)             111.466          estimate D2E/DX2                !
 ! A6    A(11,1,13)            109.4654         estimate D2E/DX2                !
 ! A7    A(1,2,3)              109.3667         estimate D2E/DX2                !
 ! A8    A(1,2,8)              111.2638         estimate D2E/DX2                !
 ! A9    A(1,2,14)             107.878          estimate D2E/DX2                !
 ! A10   A(3,2,8)              107.9464         estimate D2E/DX2                !
 ! A11   A(3,2,14)             109.6793         estimate D2E/DX2                !
 ! A12   A(8,2,14)             110.6961         estimate D2E/DX2                !
 ! A13   A(2,3,4)              110.295          estimate D2E/DX2                !
 ! A14   A(2,3,9)              108.0984         estimate D2E/DX2                !
 ! A15   A(2,3,15)             108.8904         estimate D2E/DX2                !
 ! A16   A(4,3,9)              111.7753         estimate D2E/DX2                !
 ! A17   A(4,3,15)             108.1376         estimate D2E/DX2                !
 ! A18   A(9,3,15)             109.6071         estimate D2E/DX2                !
 ! A19   A(3,4,5)              108.9608         estimate D2E/DX2                !
 ! A20   A(3,4,10)             106.2512         estimate D2E/DX2                !
 ! A21   A(3,4,16)             108.9544         estimate D2E/DX2                !
 ! A22   A(5,4,10)             112.2091         estimate D2E/DX2                !
 ! A23   A(5,4,16)             109.3327         estimate D2E/DX2                !
 ! A24   A(10,4,16)            111.0277         estimate D2E/DX2                !
 ! A25   A(4,5,6)              112.9282         estimate D2E/DX2                !
 ! A26   A(4,5,11)             109.4638         estimate D2E/DX2                !
 ! A27   A(4,5,17)             109.0017         estimate D2E/DX2                !
 ! A28   A(6,5,11)             106.2826         estimate D2E/DX2                !
 ! A29   A(6,5,17)             109.2779         estimate D2E/DX2                !
 ! A30   A(11,5,17)            109.8382         estimate D2E/DX2                !
 ! A31   A(5,6,12)             111.3638         estimate D2E/DX2                !
 ! A32   A(5,6,23)             109.7018         estimate D2E/DX2                !
 ! A33   A(5,6,24)             108.8855         estimate D2E/DX2                !
 ! A34   A(12,6,23)            107.0897         estimate D2E/DX2                !
 ! A35   A(12,6,24)            111.0835         estimate D2E/DX2                !
 ! A36   A(23,6,24)            108.6644         estimate D2E/DX2                !
 ! A37   A(1,7,18)             109.8567         estimate D2E/DX2                !
 ! A38   A(2,8,19)             108.3144         estimate D2E/DX2                !
 ! A39   A(2,8,25)             112.3768         estimate D2E/DX2                !
 ! A40   A(19,8,25)            124.1375         estimate D2E/DX2                !
 ! A41   A(3,9,20)             107.6669         estimate D2E/DX2                !
 ! A42   A(3,9,25)             110.8378         estimate D2E/DX2                !
 ! A43   A(20,9,25)            124.1784         estimate D2E/DX2                !
 ! A44   A(4,10,21)            110.1244         estimate D2E/DX2                !
 ! A45   A(1,11,5)             113.0383         estimate D2E/DX2                !
 ! A46   A(6,12,22)            107.4646         estimate D2E/DX2                !
 ! A47   A(8,25,9)              71.1672         estimate D2E/DX2                !
 ! D1    D(7,1,2,3)            176.1186         estimate D2E/DX2                !
 ! D2    D(7,1,2,8)            -64.7209         estimate D2E/DX2                !
 ! D3    D(7,1,2,14)            56.88           estimate D2E/DX2                !
 ! D4    D(11,1,2,3)            57.9147         estimate D2E/DX2                !
 ! D5    D(11,1,2,8)           177.0752         estimate D2E/DX2                !
 ! D6    D(11,1,2,14)          -61.3239         estimate D2E/DX2                !
 ! D7    D(13,1,2,3)           -62.4573         estimate D2E/DX2                !
 ! D8    D(13,1,2,8)            56.7032         estimate D2E/DX2                !
 ! D9    D(13,1,2,14)          178.3041         estimate D2E/DX2                !
 ! D10   D(2,1,7,18)           163.7752         estimate D2E/DX2                !
 ! D11   D(11,1,7,18)          -77.9298         estimate D2E/DX2                !
 ! D12   D(13,1,7,18)           43.1398         estimate D2E/DX2                !
 ! D13   D(2,1,11,5)           -63.254          estimate D2E/DX2                !
 ! D14   D(7,1,11,5)           179.8581         estimate D2E/DX2                !
 ! D15   D(13,1,11,5)           57.5783         estimate D2E/DX2                !
 ! D16   D(1,2,3,4)            -55.1066         estimate D2E/DX2                !
 ! D17   D(1,2,3,9)           -177.5841         estimate D2E/DX2                !
 ! D18   D(1,2,3,15)            63.4056         estimate D2E/DX2                !
 ! D19   D(8,2,3,4)           -176.2995         estimate D2E/DX2                !
 ! D20   D(8,2,3,9)             61.2229         estimate D2E/DX2                !
 ! D21   D(8,2,3,15)           -57.7874         estimate D2E/DX2                !
 ! D22   D(14,2,3,4)            63.0123         estimate D2E/DX2                !
 ! D23   D(14,2,3,9)           -59.4653         estimate D2E/DX2                !
 ! D24   D(14,2,3,15)         -178.4756         estimate D2E/DX2                !
 ! D25   D(1,2,8,19)            56.3113         estimate D2E/DX2                !
 ! D26   D(1,2,8,25)          -162.8356         estimate D2E/DX2                !
 ! D27   D(3,2,8,19)           176.3165         estimate D2E/DX2                !
 ! D28   D(3,2,8,25)           -42.8304         estimate D2E/DX2                !
 ! D29   D(14,2,8,19)          -63.6333         estimate D2E/DX2                !
 ! D30   D(14,2,8,25)           77.2198         estimate D2E/DX2                !
 ! D31   D(2,3,4,5)             54.5324         estimate D2E/DX2                !
 ! D32   D(2,3,4,10)           175.6272         estimate D2E/DX2                !
 ! D33   D(2,3,4,16)           -64.6839         estimate D2E/DX2                !
 ! D34   D(9,3,4,5)            174.8232         estimate D2E/DX2                !
 ! D35   D(9,3,4,10)           -64.082          estimate D2E/DX2                !
 ! D36   D(9,3,4,16)            55.6069         estimate D2E/DX2                !
 ! D37   D(15,3,4,5)           -64.4394         estimate D2E/DX2                !
 ! D38   D(15,3,4,10)           56.6554         estimate D2E/DX2                !
 ! D39   D(15,3,4,16)          176.3444         estimate D2E/DX2                !
 ! D40   D(2,3,9,20)           173.031          estimate D2E/DX2                !
 ! D41   D(2,3,9,25)           -48.1991         estimate D2E/DX2                !
 ! D42   D(4,3,9,20)            51.4637         estimate D2E/DX2                !
 ! D43   D(4,3,9,25)          -169.7664         estimate D2E/DX2                !
 ! D44   D(15,3,9,20)          -68.4143         estimate D2E/DX2                !
 ! D45   D(15,3,9,25)           70.3556         estimate D2E/DX2                !
 ! D46   D(3,4,5,6)           -175.0109         estimate D2E/DX2                !
 ! D47   D(3,4,5,11)           -56.8227         estimate D2E/DX2                !
 ! D48   D(3,4,5,17)            63.3347         estimate D2E/DX2                !
 ! D49   D(10,4,5,6)            67.6093         estimate D2E/DX2                !
 ! D50   D(10,4,5,11)         -174.2025         estimate D2E/DX2                !
 ! D51   D(10,4,5,17)          -54.0451         estimate D2E/DX2                !
 ! D52   D(16,4,5,6)           -56.0306         estimate D2E/DX2                !
 ! D53   D(16,4,5,11)           62.1575         estimate D2E/DX2                !
 ! D54   D(16,4,5,17)         -177.685          estimate D2E/DX2                !
 ! D55   D(3,4,10,21)          150.1207         estimate D2E/DX2                !
 ! D56   D(5,4,10,21)          -90.8945         estimate D2E/DX2                !
 ! D57   D(16,4,10,21)          31.792          estimate D2E/DX2                !
 ! D58   D(4,5,6,12)          -179.2256         estimate D2E/DX2                !
 ! D59   D(4,5,6,23)           -60.8504         estimate D2E/DX2                !
 ! D60   D(4,5,6,24)            57.9503         estimate D2E/DX2                !
 ! D61   D(11,5,6,12)           60.7435         estimate D2E/DX2                !
 ! D62   D(11,5,6,23)          179.1188         estimate D2E/DX2                !
 ! D63   D(11,5,6,24)          -62.0806         estimate D2E/DX2                !
 ! D64   D(17,5,6,12)          -57.7272         estimate D2E/DX2                !
 ! D65   D(17,5,6,23)           60.648          estimate D2E/DX2                !
 ! D66   D(17,5,6,24)          179.4486         estimate D2E/DX2                !
 ! D67   D(4,5,11,1)            62.9362         estimate D2E/DX2                !
 ! D68   D(6,5,11,1)          -174.8092         estimate D2E/DX2                !
 ! D69   D(17,5,11,1)          -56.7084         estimate D2E/DX2                !
 ! D70   D(5,6,12,22)          -55.2438         estimate D2E/DX2                !
 ! D71   D(23,6,12,22)        -175.1765         estimate D2E/DX2                !
 ! D72   D(24,6,12,22)          66.3104         estimate D2E/DX2                !
 ! D73   D(2,8,25,9)            13.7979         estimate D2E/DX2                !
 ! D74   D(19,8,25,9)          147.4039         estimate D2E/DX2                !
 ! D75   D(3,9,25,8)            19.421          estimate D2E/DX2                !
 ! D76   D(20,9,25,8)          150.036          estimate D2E/DX2                !
 --------------------------------------------------------------------------------
 Trust Radius=3.00D-01 FncErr=1.00D-07 GrdErr=1.00D-06
 Number of steps in this run=    150 maximum allowed number of steps=    150.
 GradGradGradGradGradGradGradGradGradGradGradGradGradGradGradGradGradGrad

                          Input orientation:                          
 ---------------------------------------------------------------------
 Center     Atomic      Atomic             Coordinates (Angstroms)
 Number     Number       Type             X           Y           Z
 ---------------------------------------------------------------------
      1          6           0        0.077371    0.394849    0.453089
      2          6           0       -0.593536    1.705903    0.059069
      3          6           0       -0.277081    2.016495   -1.387053
      4          6           0        1.227638    2.028735   -1.606857
      5          6           0        1.812756    0.698710   -1.120159
      6          6           0        3.327157    0.660133   -1.186292
      7          8           0       -0.167164    0.201669    1.800639
      8          8           0       -1.998188    1.622138    0.189137
      9          8           0       -0.864628    3.263385   -1.707648
     10          8           0        1.423286    2.223061   -2.992911
     11          8           0        1.468267    0.500879    0.244661
     12          8           0        3.829019   -0.582813   -0.748123
     13          1           0       -0.322536   -0.434697   -0.152360
     14          1           0       -0.190118    2.498929    0.704930
     15          1           0       -0.710287    1.229054   -2.024003
     16          1           0        1.666326    2.852934   -1.027346
     17          1           0        1.400794   -0.120053   -1.732407
     18          1           0        0.010492   -0.714941    2.037276
     19          1           0       -2.203960    1.366822    1.096565
     20          1           0       -0.567971    3.508011   -2.593105
     21          1           0        2.250034    2.689066   -3.148230
     22          1           0        3.480334   -0.739903    0.136843
     23          1           0        3.654157    0.791897   -2.220423
     24          1           0        3.730898    1.485002   -0.581780
     25         11           0       -3.116514    3.340320   -0.993151
 ---------------------------------------------------------------------
                    Distance matrix (angstroms):
                    1          2          3          4          5
     1  C    0.000000
     2  C    1.524543   0.000000
     3  C    2.478204   1.512574   0.000000
     4  C    2.869856   2.489218   1.520738   0.000000
     5  C    2.361991   2.862737   2.484997   1.532386   0.000000
     6  C    3.649527   4.244572   3.856236   2.541245   1.516335
     7  O    1.383115   2.340423   3.669749   4.110313   3.563453
     8  O    2.425666   1.413146   2.366876   3.714414   4.134038
     9  O    3.712768   2.370766   1.415177   2.431479   3.753809
    10  O    4.126592   3.694538   2.347914   1.413219   2.445921
    11  O    1.410416   2.395320   2.829456   2.412544   1.421459
    12  O    4.058768   5.044678   4.901500   3.784811   2.417856
    13  H    1.102107   2.168020   2.744972   3.253782   2.603981
    14  H    2.135914   1.099443   2.148650   2.752358   3.253190
    15  H    2.729888   2.140142   1.101561   2.137534   2.732022
    16  H    3.280038   2.757347   2.146125   1.098901   2.161189
    17  H    2.606332   3.243587   2.738499   2.159407   1.102241
    18  H    1.935395   3.184123   4.389701   4.721113   3.900765
    19  H    2.561887   1.945466   3.209875   4.418426   4.636189
    20  H    4.403129   3.206599   1.940051   2.526886   3.966056
    21  H    4.790971   4.397644   3.152842   1.963966   2.875030
    22  H    3.601087   4.752309   4.902873   3.972466   2.535838
    23  H    4.483159   4.906566   4.201046   2.791815   2.147096
    24  H    3.950651   4.377239   4.122481   2.759120   2.141816
    25  Na   4.579118   3.184950   3.157538   4.579142   5.593920
                    6          7          8          9         10
     6  C    0.000000
     7  O    4.619765   0.000000
     8  O    5.583597   2.822644   0.000000
     9  O    4.961833   4.708358   2.752534   0.000000
    10  O    3.054724   5.440007   4.710947   2.822893   0.000000
    11  O    2.351268   2.277109   3.643709   4.109178   3.667398
    12  O    1.410239   4.804277   6.300525   6.143635   4.324298
    13  H    3.948154   2.059929   2.674883   4.048282   4.263836
    14  H    4.396489   2.545292   2.074591   2.619139   4.043910
    15  H    4.162497   3.997298   2.590597   2.064558   2.545381
    16  H    2.755358   4.288169   4.052575   2.652736   2.078281
    17  H    2.148908   3.878713   4.275587   4.071904   2.660744
    18  H    4.825193   0.963189   3.593376   5.533296   5.994216
    19  H    6.025288   2.449865   0.964860   3.640656   5.532981
    20  H    5.026087   5.513395   3.652795   0.965340   2.403341
    21  H    3.020921   6.043286   5.506701   3.479402   0.961663
    22  H    1.932420   4.118133   5.966254   6.189277   4.775558
    23  H    1.092574   5.578513   6.200346   5.175964   2.760752
    24  H    1.099477   4.745288   5.782349   5.054610   3.418092
    25  Na   6.981518   5.133718   2.366560   2.363772   5.084987
                   11         12         13         14         15
    11  O    0.000000
    12  O    2.780856   0.000000
    13  H    2.059102   4.196699   0.000000
    14  H    2.637099   5.268962   3.059190   0.000000
    15  H    3.228494   5.051340   2.534061   3.054543   0.000000
    16  H    2.681305   4.069345   3.940773   2.563686   3.046079
    17  H    2.073381   2.660684   2.359113   3.915442   2.522258
    18  H    2.610899   4.728325   2.232477   3.484875   4.559894
    19  H    3.867926   6.603090   2.888779   2.343204   3.462368
    20  H    4.608907   6.282700   4.643535   3.469590   2.353247
    21  H    4.112303   4.354182   5.035002   4.564794   3.486979
    22  H    2.366343   0.964065   3.826044   4.927979   5.109535
    23  H    3.307484   2.021898   4.647096   5.123485   4.390679
    24  H    2.602115   2.076814   4.505549   4.249475   4.676499
    25  Na   5.533066   7.980692   4.771163   3.486433   3.363039
                   16         17         18         19         20
    16  H    0.000000
    17  H    3.066965   0.000000
    18  H    4.986325   4.061693   0.000000
    19  H    4.658181   4.817482   3.181583   0.000000
    20  H    2.805853   4.216597   6.293518   4.568897   0.000000
    21  H    2.205837   3.258361   6.594869   6.293226   2.986635
    22  H    4.189802   2.864052   3.956271   6.137635   6.471952
    23  H    3.102060   2.479407   5.803005   6.756515   5.034137
    24  H    2.516391   3.054428   5.053774   6.168740   5.159290
    25  Na   4.807731   5.738184   5.950361   3.015686   3.013809
                   21         22         23         24         25
    21  H    0.000000
    22  H    4.905422   0.000000
    23  H    2.536067   2.816616   0.000000
    24  H    3.198343   2.351468   1.780852   0.000000
    25  Na   5.819651   7.838591   7.337755   7.106229   0.000000
 Symmetry turned off by external request.
 Stoichiometry    C6H12NaO6(1+)
 Framework group  C1[X(C6H12NaO6)]
 Deg. of freedom    69
 Full point group                 C1      NOp   1
 Rotational constants (GHZ):      1.1457949      0.4933236      0.3557724
 Standard basis: 6-31+G(2df,p) (6D, 7F)
 Integral buffers will be    131072 words long.
 Raffenetti 2 integral format.
 Two-electron integral symmetry is turned off.
   480 basis functions,   732 primitive gaussians,   519 cartesian basis functions
    53 alpha electrons       53 beta electrons
       nuclear repulsion energy       963.4652034908 Hartrees.
 NAtoms=   25 NActive=   25 NUniq=   25 SFac= 1.00D+00 NAtFMM=   50 NAOKFM=F Big=F
 Using the following non-standard input for PCM:
 Radii=uff
 --- end of non-standard input.
 ------------------------------------------------------------------------------
 Polarizable Continuum Model (PCM)
 =================================
 Model                : C-PCM.
 Atomic radii         : UFF (Universal Force Field).
 Polarization charges : Total charges.
 Charge compensation  : None.
 Solution method      : Matrix inversion.
 Cavity type          : Scaled VdW (van der Waals Surface) (Alpha=1.100).
 Cavity algorithm     : GePol (No added spheres)
                        Default sphere list used, NSphG=   25.
                        Lebedev-Laikov grids with approx.  5.0 points / Ang**2.
                        Smoothing algorithm: Karplus/York (Gamma=1.0000).
                        Polarization charges: spherical gaussians, with
                                              point-specific exponents (IZeta= 3).
                        Self-potential: point-specific (ISelfS= 7).
                        Self-field    : sphere-specific E.n sum rule (ISelfD= 2).
 1st derivatives      : Analytical E(r).r(x)/FMM algorithm (CHGder, D1EAlg=3).
                        Cavity 1st derivative terms included.
 Solvent              : Water, Eps=  78.355300 Eps(inf)=   1.777849
 ------------------------------------------------------------------------------
 One-electron integrals computed using PRISM.
 NBasis=   480 RedAO= T  NBF=   480
 NBsUse=   480 1.00D-06 NBFU=   480
 Initial guess read from the checkpoint file:  /global/u1/h/hmayes/gaussian/glucose/glucNa3eO4areactt.chk
 B after Tr=     0.000000    0.000000    0.000000
         Rot=    1.000000    0.000000    0.000000    0.000000 Ang=   0.00 deg.
 Requested convergence on RMS density matrix=1.00D-06 within 128 cycles.
 Requested convergence on MAX density matrix=1.00D-04.
 Requested convergence on             energy=1.00D-04.
 No special actions if energy rises.
 Error on total polarization charges =  0.01076
 SCF Done:  E(RM062X) =  -849.236545271     A.U. after    5 cycles
             Convg  =    0.2708D-06             -V/T =  2.0058
 QCSCF skips out because SCF is already converged.

 **********************************************************************

            Population analysis using the SCF density.

 **********************************************************************

 Alpha  occ. eigenvalues --  -39.13916 -19.67066 -19.66827 -19.66820 -19.66799
 Alpha  occ. eigenvalues --  -19.66321 -19.64721 -10.66572 -10.61980 -10.61912
 Alpha  occ. eigenvalues --  -10.61804 -10.61367 -10.60277  -2.38438  -1.26388
 Alpha  occ. eigenvalues --   -1.26306  -1.26275  -1.22890  -1.19322  -1.18203
 Alpha  occ. eigenvalues --   -1.16523  -1.16271  -1.14972  -0.91046  -0.88754
 Alpha  occ. eigenvalues --   -0.79932  -0.75890  -0.72043  -0.69403  -0.64600
 Alpha  occ. eigenvalues --   -0.63658  -0.63270  -0.62074  -0.59919  -0.58516
 Alpha  occ. eigenvalues --   -0.56526  -0.53796  -0.52583  -0.51830  -0.50807
 Alpha  occ. eigenvalues --   -0.49792  -0.49107  -0.46276  -0.45438  -0.43831
 Alpha  occ. eigenvalues --   -0.43220  -0.42223  -0.40850  -0.39327  -0.38448
 Alpha  occ. eigenvalues --   -0.37817  -0.36059  -0.34260
 Alpha virt. eigenvalues --   -0.01079  -0.00039   0.00224   0.00256   0.02324
 Alpha virt. eigenvalues --    0.02812   0.03265   0.03932   0.04013   0.04136
 Alpha virt. eigenvalues --    0.04562   0.05533   0.05942   0.06323   0.07005
 Alpha virt. eigenvalues --    0.07701   0.09234   0.09495   0.10155   0.10365
 Alpha virt. eigenvalues --    0.11165   0.11287   0.12078   0.13007   0.13829
 Alpha virt. eigenvalues --    0.14429   0.14684   0.15176   0.15457   0.16148
 Alpha virt. eigenvalues --    0.17192   0.18033   0.18923   0.19654   0.20203
 Alpha virt. eigenvalues --    0.20967   0.21136   0.21607   0.22016   0.22657
 Alpha virt. eigenvalues --    0.22958   0.23092   0.23431   0.24183   0.24528
 Alpha virt. eigenvalues --    0.25020   0.25500   0.25910   0.26575   0.27236
 Alpha virt. eigenvalues --    0.27390   0.27637   0.28363   0.28821   0.29176
 Alpha virt. eigenvalues --    0.29412   0.30466   0.30942   0.31467   0.31999
 Alpha virt. eigenvalues --    0.32248   0.32980   0.33382   0.34167   0.34519
 Alpha virt. eigenvalues --    0.35061   0.35191   0.36090   0.36571   0.36633
 Alpha virt. eigenvalues --    0.37485   0.37996   0.38489   0.38810   0.39966
 Alpha virt. eigenvalues --    0.40264   0.41700   0.42488   0.42759   0.43327
 Alpha virt. eigenvalues --    0.43414   0.44187   0.45128   0.45683   0.46392
 Alpha virt. eigenvalues --    0.47292   0.48945   0.49474   0.51368   0.57359
 Alpha virt. eigenvalues --    0.59032   0.60176   0.61375   0.62737   0.64169
 Alpha virt. eigenvalues --    0.66144   0.66499   0.67313   0.68415   0.70670
 Alpha virt. eigenvalues --    0.71406   0.72651   0.73022   0.73468   0.75051
 Alpha virt. eigenvalues --    0.76033   0.76570   0.79118   0.79279   0.81129
 Alpha virt. eigenvalues --    0.81833   0.83591   0.84736   0.86940   0.88042
 Alpha virt. eigenvalues --    0.88949   0.91240   0.92293   0.92994   0.93593
 Alpha virt. eigenvalues --    0.95104   0.95205   0.95808   0.96532   0.97042
 Alpha virt. eigenvalues --    0.97402   0.98248   0.98842   1.00121   1.00825
 Alpha virt. eigenvalues --    1.01028   1.01502   1.02047   1.02769   1.03915
 Alpha virt. eigenvalues --    1.05043   1.05744   1.07522   1.08000   1.10557
 Alpha virt. eigenvalues --    1.12038   1.12506   1.13120   1.14511   1.15219
 Alpha virt. eigenvalues --    1.15407   1.15822   1.16470   1.18157   1.19034
 Alpha virt. eigenvalues --    1.20664   1.22269   1.23480   1.24465   1.25984
 Alpha virt. eigenvalues --    1.26518   1.27940   1.28655   1.29037   1.30356
 Alpha virt. eigenvalues --    1.30887   1.31670   1.32209   1.33878   1.35123
 Alpha virt. eigenvalues --    1.36108   1.37451   1.38430   1.39536   1.40983
 Alpha virt. eigenvalues --    1.42728   1.44511   1.46164   1.47237   1.48110
 Alpha virt. eigenvalues --    1.51043   1.52158   1.53774   1.56874   1.57656
 Alpha virt. eigenvalues --    1.57695   1.58680   1.60166   1.62034   1.62343
 Alpha virt. eigenvalues --    1.65374   1.65504   1.68205   1.70470   1.70843
 Alpha virt. eigenvalues --    1.71864   1.73365   1.73910   1.75627   1.78116
 Alpha virt. eigenvalues --    1.79273   1.81211   1.83469   1.85387   1.86881
 Alpha virt. eigenvalues --    1.88126   1.89735   1.92550   1.95057   1.96566
 Alpha virt. eigenvalues --    1.99099   2.00678   2.02969   2.04144   2.05832
 Alpha virt. eigenvalues --    2.08275   2.09543   2.11405   2.13304   2.16843
 Alpha virt. eigenvalues --    2.19553   2.22772   2.25872   2.30229   2.31880
 Alpha virt. eigenvalues --    2.33156   2.35608   2.38597   2.44422   2.45365
 Alpha virt. eigenvalues --    2.47352   2.53185   2.53264   2.56212   2.57685
 Alpha virt. eigenvalues --    2.59610   2.60735   2.62938   2.63733   2.65682
 Alpha virt. eigenvalues --    2.67474   2.71506   2.72430   2.75531   2.78195
 Alpha virt. eigenvalues --    2.79625   2.81389   2.83732   2.84533   2.85703
 Alpha virt. eigenvalues --    2.86535   2.89077   2.91947   2.93423   2.96268
 Alpha virt. eigenvalues --    2.97084   2.98664   2.99320   3.01709   3.05910
 Alpha virt. eigenvalues --    3.06749   3.08003   3.10028   3.11540   3.12812
 Alpha virt. eigenvalues --    3.13740   3.14752   3.17983   3.19398   3.21646
 Alpha virt. eigenvalues --    3.25918   3.27308   3.30705   3.32195   3.33763
 Alpha virt. eigenvalues --    3.35004   3.36795   3.39312   3.40872   3.41993
 Alpha virt. eigenvalues --    3.45366   3.48972   3.50368   3.52596   3.58948
 Alpha virt. eigenvalues --    3.60882   3.62862   3.63378   3.68363   3.68983
 Alpha virt. eigenvalues --    3.69865   3.71635   3.73839   3.75896   3.81261
 Alpha virt. eigenvalues --    3.86195   3.88189   3.90488   3.92288   3.99549
 Alpha virt. eigenvalues --    4.04409   4.13106   4.15827   4.19328   4.21868
 Alpha virt. eigenvalues --    4.24354   4.26874   4.29630   4.30665   4.31831
 Alpha virt. eigenvalues --    4.34588   4.35344   4.36074   4.37034   4.39002
 Alpha virt. eigenvalues --    4.40589   4.41555   4.43609   4.44996   4.47065
 Alpha virt. eigenvalues --    4.48733   4.49569   4.51705   4.52967   4.53942
 Alpha virt. eigenvalues --    4.55237   4.56572   4.56947   4.57734   4.59504
 Alpha virt. eigenvalues --    4.62147   4.63454   4.63718   4.64110   4.65534
 Alpha virt. eigenvalues --    4.65997   4.66795   4.68079   4.69126   4.69997
 Alpha virt. eigenvalues --    4.71308   4.71922   4.73994   4.75464   4.77046
 Alpha virt. eigenvalues --    4.78574   4.80477   4.81427   4.83533   4.86089
 Alpha virt. eigenvalues --    4.88865   4.90208   4.91352   4.93669   4.95299
 Alpha virt. eigenvalues --    4.97185   4.98086   5.00973   5.04106   5.05142
 Alpha virt. eigenvalues --    5.06419   5.09970   5.12565   5.17135   5.19946
 Alpha virt. eigenvalues --    5.23806   5.25627   5.28623   5.29771   5.30955
 Alpha virt. eigenvalues --    5.33455   5.35342   5.38874   5.39888   5.40788
 Alpha virt. eigenvalues --    5.42623   5.44574   5.45064   5.46683   5.48203
 Alpha virt. eigenvalues --    5.48894   5.50516   5.53967   5.56429   5.57884
 Alpha virt. eigenvalues --    5.59187   5.60589   5.62683   5.67532   5.74255
 Alpha virt. eigenvalues --    5.77796   5.80930   5.82654   5.87925   5.89008
 Alpha virt. eigenvalues --    5.93208   5.93497   5.96770   5.99047   6.00483
 Alpha virt. eigenvalues --    6.02254   6.05259   6.06214   6.06827   6.08733
 Alpha virt. eigenvalues --    6.10559   6.11183   6.15119   6.19315   6.23829
 Alpha virt. eigenvalues --    6.30278   6.43453   6.93082   7.09661   7.14671
 Alpha virt. eigenvalues --    7.24090   7.30894   7.41971   7.44498   7.88507
 Alpha virt. eigenvalues --   11.92084  12.23450  12.37020  12.74349  13.01792
 Alpha virt. eigenvalues --   13.30013  13.37448  13.49926  13.64685  13.77632
 Alpha virt. eigenvalues --   13.83368  13.97693
          Condensed to atoms (all electrons):
              1          2          3          4          5          6
     1  C    5.239302   0.067954  -0.042141   0.172616  -0.332240  -0.032192
     2  C    0.067954   5.571005   0.369288  -0.397069   0.157255  -0.000896
     3  C   -0.042141   0.369288   5.758987  -0.399567   0.108466  -0.188677
     4  C    0.172616  -0.397069  -0.399567   6.489328  -0.450160   0.123776
     5  C   -0.332240   0.157255   0.108466  -0.450160   6.510410  -0.176549
     6  C   -0.032192  -0.000896  -0.188677   0.123776  -0.176549   5.560338
     7  O    0.297213  -0.075477  -0.015341   0.016151  -0.010776   0.004131
     8  O   -0.044395   0.256110  -0.115414   0.007948  -0.005863   0.000681
     9  O    0.009487  -0.124412   0.274918  -0.011680  -0.005056   0.000752
    10  O    0.013180  -0.001336  -0.139298   0.353747  -0.084186  -0.022263
    11  O    0.214254  -0.103946   0.012080  -0.037566   0.196376  -0.049236
    12  O   -0.001227  -0.000225   0.003460   0.016827   0.028125   0.135117
    13  H    0.386354  -0.064032   0.024357  -0.017390   0.012298   0.007785
    14  H   -0.026069   0.356007  -0.026014   0.010429  -0.002007   0.007606
    15  H   -0.026901  -0.022685   0.401654  -0.058940   0.014259   0.005494
    16  H    0.005159   0.008263   0.011442   0.328389  -0.035094  -0.007322
    17  H    0.023540  -0.016914  -0.003217   0.032280   0.246466   0.033334
    18  H   -0.049692   0.029993   0.005840  -0.005157   0.002249  -0.001243
    19  H   -0.011092  -0.023816   0.010944  -0.000447   0.002107   0.000057
    20  H   -0.001283   0.015500  -0.007565  -0.039174   0.010546  -0.000329
    21  H   -0.001040   0.000518   0.007226   0.004420  -0.029860   0.003660
    22  H   -0.001215   0.004016  -0.002077   0.008923  -0.070862   0.024483
    23  H   -0.001242   0.005526   0.001377  -0.018753  -0.090891   0.473956
    24  H    0.002841  -0.007219  -0.007587   0.046797  -0.078103   0.410770
    25  Na   0.000897  -0.026489  -0.009229  -0.008508  -0.002037  -0.000886
              7          8          9         10         11         12
     1  C    0.297213  -0.044395   0.009487   0.013180   0.214254  -0.001227
     2  C   -0.075477   0.256110  -0.124412  -0.001336  -0.103946  -0.000225
     3  C   -0.015341  -0.115414   0.274918  -0.139298   0.012080   0.003460
     4  C    0.016151   0.007948  -0.011680   0.353747  -0.037566   0.016827
     5  C   -0.010776  -0.005863  -0.005056  -0.084186   0.196376   0.028125
     6  C    0.004131   0.000681   0.000752  -0.022263  -0.049236   0.135117
     7  O    8.075238  -0.011921   0.000200  -0.000149  -0.007395   0.000184
     8  O   -0.011921   8.191527  -0.008522  -0.000157   0.004207  -0.000043
     9  O    0.000200  -0.008522   8.168927  -0.016643  -0.002082   0.000020
    10  O   -0.000149  -0.000157  -0.016643   8.143373   0.005559  -0.001209
    11  O   -0.007395   0.004207  -0.002082   0.005559   8.067517  -0.005520
    12  O    0.000184  -0.000043   0.000020  -0.001209  -0.005520   8.099027
    13  H   -0.023873   0.003967   0.000254   0.000031  -0.029080  -0.000229
    14  H   -0.002469  -0.027157   0.003415   0.000274   0.004715  -0.000036
    15  H    0.000665   0.004533  -0.030338  -0.002202   0.003238   0.000031
    16  H   -0.000150   0.000510   0.002348  -0.020972   0.005973   0.000290
    17  H    0.000767  -0.000029   0.000014  -0.000776  -0.025631   0.000199
    18  H    0.296709  -0.000606  -0.000003  -0.000003  -0.001509  -0.000001
    19  H    0.010032   0.290894   0.000170   0.000005  -0.000115   0.000000
    20  H    0.000007   0.000044   0.285161   0.013107  -0.000001   0.000001
    21  H   -0.000002  -0.000002  -0.000347   0.295145  -0.000469   0.000084
    22  H   -0.000035  -0.000008  -0.000001   0.000090   0.014678   0.289930
    23  H   -0.000002  -0.000005  -0.000005   0.007466   0.004639  -0.037789
    24  H    0.000144  -0.000004  -0.000028  -0.004458  -0.002176  -0.034191
    25  Na  -0.000661   0.030536   0.038231  -0.000400   0.000087  -0.000072
             13         14         15         16         17         18
     1  C    0.386354  -0.026069  -0.026901   0.005159   0.023540  -0.049692
     2  C   -0.064032   0.356007  -0.022685   0.008263  -0.016914   0.029993
     3  C    0.024357  -0.026014   0.401654   0.011442  -0.003217   0.005840
     4  C   -0.017390   0.010429  -0.058940   0.328389   0.032280  -0.005157
     5  C    0.012298  -0.002007   0.014259  -0.035094   0.246466   0.002249
     6  C    0.007785   0.007606   0.005494  -0.007322   0.033334  -0.001243
     7  O   -0.023873  -0.002469   0.000665  -0.000150   0.000767   0.296709
     8  O    0.003967  -0.027157   0.004533   0.000510  -0.000029  -0.000606
     9  O    0.000254   0.003415  -0.030338   0.002348   0.000014  -0.000003
    10  O    0.000031   0.000274  -0.002202  -0.020972  -0.000776  -0.000003
    11  O   -0.029080   0.004715   0.003238   0.005973  -0.025631  -0.001509
    12  O   -0.000229  -0.000036   0.000031   0.000290   0.000199  -0.000001
    13  H    0.521177   0.003164   0.000513  -0.000071   0.002481  -0.006063
    14  H    0.003164   0.509978   0.003505   0.000164  -0.000092  -0.000076
    15  H    0.000513   0.003505   0.518620   0.003643   0.000660   0.000004
    16  H   -0.000071   0.000164   0.003643   0.515643   0.003611   0.000001
    17  H    0.002481  -0.000092   0.000660   0.003611   0.534880  -0.000023
    18  H   -0.006063  -0.000076   0.000004   0.000001  -0.000023   0.329192
    19  H   -0.000079  -0.003301  -0.000061   0.000004   0.000002  -0.000408
    20  H    0.000004  -0.000087  -0.002598  -0.000252   0.000005   0.000000
    21  H    0.000002   0.000008  -0.000049  -0.007634  -0.000076   0.000000
    22  H    0.000052   0.000000   0.000000   0.000000   0.000038   0.000004
    23  H    0.000006  -0.000001  -0.000013   0.000014  -0.002552   0.000000
    24  H   -0.000009  -0.000011  -0.000005   0.001806   0.003845   0.000000
    25  Na   0.000337   0.001599   0.002302   0.000706   0.000379   0.000069
             19         20         21         22         23         24
     1  C   -0.011092  -0.001283  -0.001040  -0.001215  -0.001242   0.002841
     2  C   -0.023816   0.015500   0.000518   0.004016   0.005526  -0.007219
     3  C    0.010944  -0.007565   0.007226  -0.002077   0.001377  -0.007587
     4  C   -0.000447  -0.039174   0.004420   0.008923  -0.018753   0.046797
     5  C    0.002107   0.010546  -0.029860  -0.070862  -0.090891  -0.078103
     6  C    0.000057  -0.000329   0.003660   0.024483   0.473956   0.410770
     7  O    0.010032   0.000007  -0.000002  -0.000035  -0.000002   0.000144
     8  O    0.290894   0.000044  -0.000002  -0.000008  -0.000005  -0.000004
     9  O    0.000170   0.285161  -0.000347  -0.000001  -0.000005  -0.000028
    10  O    0.000005   0.013107   0.295145   0.000090   0.007466  -0.004458
    11  O   -0.000115  -0.000001  -0.000469   0.014678   0.004639  -0.002176
    12  O    0.000000   0.000001   0.000084   0.289930  -0.037789  -0.034191
    13  H   -0.000079   0.000004   0.000002   0.000052   0.000006  -0.000009
    14  H   -0.003301  -0.000087   0.000008   0.000000  -0.000001  -0.000011
    15  H   -0.000061  -0.002598  -0.000049   0.000000  -0.000013  -0.000005
    16  H    0.000004  -0.000252  -0.007634   0.000000   0.000014   0.001806
    17  H    0.000002   0.000005  -0.000076   0.000038  -0.002552   0.003845
    18  H   -0.000408   0.000000   0.000000   0.000004   0.000000   0.000000
    19  H    0.320363   0.000019   0.000000   0.000000   0.000000   0.000000
    20  H    0.000019   0.321949  -0.000725   0.000000   0.000000   0.000000
    21  H    0.000000  -0.000725   0.329586  -0.000003  -0.000969   0.000234
    22  H    0.000000   0.000000  -0.000003   0.348321   0.004817  -0.003332
    23  H    0.000000   0.000000  -0.000969   0.004817   0.503998  -0.033109
    24  H    0.000000   0.000000   0.000234  -0.003332  -0.033109   0.527207
    25  Na  -0.006525  -0.007320   0.000125   0.000041   0.000014   0.000082
             25
     1  C    0.000897
     2  C   -0.026489
     3  C   -0.009229
     4  C   -0.008508
     5  C   -0.002037
     6  C   -0.000886
     7  O   -0.000661
     8  O    0.030536
     9  O    0.038231
    10  O   -0.000400
    11  O    0.000087
    12  O   -0.000072
    13  H    0.000337
    14  H    0.001599
    15  H    0.002302
    16  H    0.000706
    17  H    0.000379
    18  H    0.000069
    19  H   -0.006525
    20  H   -0.007320
    21  H    0.000125
    22  H    0.000041
    23  H    0.000014
    24  H    0.000082
    25  Na   9.972114
 Mulliken atomic charges:
              1
     1  C    0.137931
     2  C    0.023080
     3  C   -0.033908
     4  C   -0.167220
     5  C    0.085127
     6  C   -0.312348
     7  O   -0.553190
     8  O   -0.576828
     9  O   -0.584780
    10  O   -0.537927
    11  O   -0.268595
    12  O   -0.492754
    13  H    0.178047
    14  H    0.186455
    15  H    0.184671
    16  H    0.183528
    17  H    0.166810
    18  H    0.400721
    19  H    0.411247
    20  H    0.412994
    21  H    0.400168
    22  H    0.382140
    23  H    0.183519
    24  H    0.176507
    25  Na   1.014606
 Sum of Mulliken atomic charges =   1.00000
 Mulliken charges with hydrogens summed into heavy atoms:
              1
     1  C    0.315978
     2  C    0.209535
     3  C    0.150763
     4  C    0.016308
     5  C    0.251937
     6  C    0.047677
     7  O   -0.152469
     8  O   -0.165581
     9  O   -0.171786
    10  O   -0.137759
    11  O   -0.268595
    12  O   -0.110614
    25  Na   1.014606
 Sum of Mulliken charges with hydrogens summed into heavy atoms =   1.00000
 Electronic spatial extent (au):  <R**2>=           3853.9852
 Charge=              1.0000 electrons
 Dipole moment (field-independent basis, Debye):
    X=            -12.0851    Y=             14.7197    Z=             -4.3777  Tot=             19.5419
 Quadrupole moment (field-independent basis, Debye-Ang):
   XX=            -36.8385   YY=            -21.3836   ZZ=            -64.1235
   XY=            -30.6605   XZ=              7.8476   YZ=            -24.9646
 Traceless Quadrupole moment (field-independent basis, Debye-Ang):
   XX=              3.9433   YY=             19.3983   ZZ=            -23.3416
   XY=            -30.6605   XZ=              7.8476   YZ=            -24.9646
 Octapole moment (field-independent basis, Debye-Ang**2):
  XXX=           -305.4576  YYY=           -119.3728  ZZZ=            140.7934  XYY=           -169.1150
  XXY=             81.2124  XXZ=             11.3576  XZZ=            -51.9956  YZZ=            -62.8442
  YYZ=            -15.7817  XYZ=             12.7110
 Hexadecapole moment (field-independent basis, Debye-Ang**3):
 XXXX=          -1513.9690 YYYY=           -846.1245 ZZZZ=           -937.0182 XXXY=           -231.1668
 XXXZ=            347.9406 YYYX=           -333.8078 YYYZ=            104.5071 ZZZX=            199.2658
 ZZZY=            256.2220 XXYY=             -2.2156 XXZZ=           -337.0951 YYZZ=           -237.3426
 XXYZ=           -104.0362 YYXZ=            170.4170 ZZXY=             25.1611
 N-N= 9.634652034908D+02 E-N=-3.913407308302D+03  KE= 8.443308729574D+02
 D1PCM: C-PCM CHGder 1st derivatives, ID1Alg=3 FixD1E=F DoIter=F DoCFld=F I1PDM=0.
 Calling FoFJK, ICntrl=      2127 FMM=F ISym2X=0 I1Cent= 0 IOpClX= 0 NMat=1 NMatS=1 NMatT=0.
 -------------------------------------------------------------------
 Center     Atomic                   Forces (Hartrees/Bohr)
 Number     Number              X              Y              Z
 -------------------------------------------------------------------
      1        6          -0.000363856    0.000070992   -0.000195645
      2        6          -0.000358165   -0.000079073    0.000031319
      3        6          -0.000233538    0.000241104   -0.000129243
      4        6          -0.000053309    0.000049800    0.000059695
      5        6           0.000044658    0.000049333   -0.000021124
      6        6          -0.000142931    0.000276888   -0.000072560
      7        8           0.000153835    0.000034825    0.000188528
      8        8           0.000534392   -0.000228862    0.000033580
      9        8           0.000576306   -0.000191692    0.000117747
     10        8           0.000101988   -0.000169666   -0.000067585
     11        8           0.000276918   -0.000036807    0.000032824
     12        8           0.000174932   -0.000258015    0.000114404
     13        1           0.000041501   -0.000008864    0.000085646
     14        1          -0.000013605    0.000043730    0.000028945
     15        1          -0.000033201   -0.000015763    0.000013877
     16        1           0.000063437   -0.000002897   -0.000084980
     17        1          -0.000037812    0.000002824    0.000029399
     18        1          -0.000062275   -0.000073727   -0.000045799
     19        1          -0.000090322    0.000150635   -0.000059442
     20        1          -0.000180314    0.000002161   -0.000027886
     21        1           0.000018005    0.000100471    0.000035154
     22        1          -0.000068498   -0.000036252    0.000057693
     23        1           0.000012661    0.000034557    0.000018281
     24        1          -0.000002204   -0.000022291   -0.000029720
     25       11          -0.000358602    0.000066591   -0.000113109
 -------------------------------------------------------------------
 Cartesian Forces:  Max     0.000576306 RMS     0.000156981

 GradGradGradGradGradGradGradGradGradGradGradGradGradGradGradGradGradGrad
 Berny optimization.
 Internal  Forces:  Max     0.000349020 RMS     0.000070379
 Search for a local minimum.
 Step number   1 out of a maximum of  150
 All quantities printed in internal units (Hartrees-Bohrs-Radians)
 Mixed Optimization -- En-DIIS/RFO-DIIS
 Second derivative matrix not updated -- first step.
 ITU=  0
     Eigenvalues ---    0.00550   0.00713   0.01024   0.01268   0.01517
     Eigenvalues ---    0.01556   0.01571   0.01915   0.02018   0.02800
     Eigenvalues ---    0.02991   0.03283   0.04402   0.04620   0.04728
     Eigenvalues ---    0.04938   0.05114   0.05150   0.05525   0.05666
     Eigenvalues ---    0.05963   0.06014   0.06337   0.06442   0.06867
     Eigenvalues ---    0.07350   0.08014   0.08357   0.09234   0.11119
     Eigenvalues ---    0.11532   0.11613   0.12060   0.13588   0.13893
     Eigenvalues ---    0.14321   0.16000   0.16000   0.16000   0.16378
     Eigenvalues ---    0.17678   0.18354   0.19010   0.19306   0.22073
     Eigenvalues ---    0.25862   0.27776   0.29306   0.29638   0.30722
     Eigenvalues ---    0.33436   0.33450   0.33510   0.33740   0.33744
     Eigenvalues ---    0.33804   0.34517   0.40069   0.41023   0.41976
     Eigenvalues ---    0.42248   0.43498   0.43965   0.48537   0.54341
     Eigenvalues ---    0.54441   0.54608   0.54793   0.55117
 RFO step:  Lambda=-7.02440866D-06 EMin= 5.49873308D-03
 Linear search not attempted -- first point.
 Iteration  1 RMS(Cart)=  0.00204374 RMS(Int)=  0.00000340
 Iteration  2 RMS(Cart)=  0.00000330 RMS(Int)=  0.00000067
 Iteration  3 RMS(Cart)=  0.00000000 RMS(Int)=  0.00000067
 Variable       Old X    -DE/DX   Delta X   Delta X   Delta X     New X
                                 (Linear)    (Quad)   (Total)
    R1        2.88097   0.00002   0.00000   0.00022   0.00022   2.88118
    R2        2.61371   0.00012   0.00000   0.00025   0.00025   2.61395
    R3        2.66530   0.00020   0.00000   0.00049   0.00049   2.66579
    R4        2.08268  -0.00005   0.00000  -0.00015  -0.00015   2.08253
    R5        2.85835   0.00005   0.00000   0.00045   0.00045   2.85880
    R6        2.67046  -0.00033   0.00000  -0.00070  -0.00070   2.66975
    R7        2.07765   0.00005   0.00000   0.00014   0.00014   2.07779
    R8        2.87378   0.00015   0.00000   0.00044   0.00044   2.87422
    R9        2.67430  -0.00022   0.00000  -0.00059  -0.00059   2.67370
   R10        2.08165   0.00001   0.00000   0.00003   0.00003   2.08167
   R11        2.89579   0.00002   0.00000  -0.00010  -0.00010   2.89569
   R12        2.67060   0.00004   0.00000   0.00008   0.00008   2.67068
   R13        2.07662  -0.00002   0.00000  -0.00006  -0.00006   2.07657
   R14        2.86546  -0.00004   0.00000  -0.00012  -0.00012   2.86533
   R15        2.68617   0.00001   0.00000  -0.00012  -0.00012   2.68605
   R16        2.08293   0.00000   0.00000   0.00000   0.00000   2.08294
   R17        2.66497   0.00035   0.00000   0.00079   0.00079   2.66576
   R18        2.06467   0.00000   0.00000   0.00001   0.00001   2.06467
   R19        2.07771  -0.00004   0.00000  -0.00013  -0.00013   2.07758
   R20        1.82016   0.00006   0.00000   0.00011   0.00011   1.82027
   R21        1.82332  -0.00007   0.00000  -0.00012  -0.00012   1.82320
   R22        4.47215   0.00013   0.00000   0.00230   0.00230   4.47445
   R23        1.82423  -0.00004   0.00000  -0.00008  -0.00008   1.82415
   R24        4.46688   0.00022   0.00000   0.00264   0.00264   4.46952
   R25        1.81728   0.00006   0.00000   0.00010   0.00010   1.81738
   R26        1.82182   0.00006   0.00000   0.00012   0.00012   1.82194
    A1        1.86932   0.00016   0.00000   0.00083   0.00083   1.87015
    A2        1.90831   0.00002   0.00000   0.00055   0.00055   1.90885
    A3        1.92370  -0.00002   0.00000   0.00015   0.00015   1.92385
    A4        1.90586  -0.00011   0.00000  -0.00087  -0.00087   1.90499
    A5        1.94545  -0.00005   0.00000  -0.00049  -0.00049   1.94496
    A6        1.91053   0.00000   0.00000  -0.00014  -0.00014   1.91039
    A7        1.90881   0.00000   0.00000   0.00037   0.00037   1.90918
    A8        1.94192  -0.00003   0.00000  -0.00033  -0.00033   1.94159
    A9        1.88283   0.00003   0.00000   0.00022   0.00022   1.88305
   A10        1.88402   0.00000   0.00000  -0.00008  -0.00008   1.88394
   A11        1.91427  -0.00003   0.00000  -0.00018  -0.00018   1.91408
   A12        1.93201   0.00002   0.00000   0.00001   0.00001   1.93202
   A13        1.92501   0.00000   0.00000   0.00022   0.00022   1.92523
   A14        1.88667   0.00001   0.00000  -0.00023  -0.00023   1.88644
   A15        1.90050  -0.00003   0.00000  -0.00013  -0.00013   1.90036
   A16        1.95085  -0.00001   0.00000   0.00011   0.00011   1.95096
   A17        1.88736   0.00001   0.00000   0.00001   0.00001   1.88737
   A18        1.91301   0.00001   0.00000   0.00001   0.00001   1.91302
   A19        1.90172  -0.00003   0.00000  -0.00023  -0.00023   1.90149
   A20        1.85443   0.00009   0.00000   0.00067   0.00067   1.85510
   A21        1.90161   0.00003   0.00000   0.00062   0.00062   1.90223
   A22        1.95842  -0.00006   0.00000  -0.00061  -0.00061   1.95781
   A23        1.90822   0.00002   0.00000   0.00026   0.00026   1.90848
   A24        1.93780  -0.00004   0.00000  -0.00066  -0.00066   1.93714
   A25        1.97097   0.00006   0.00000   0.00048   0.00048   1.97145
   A26        1.91050   0.00006   0.00000   0.00009   0.00009   1.91059
   A27        1.90244  -0.00005   0.00000  -0.00030  -0.00030   1.90214
   A28        1.85498  -0.00009   0.00000  -0.00026  -0.00026   1.85473
   A29        1.90726   0.00002   0.00000   0.00020   0.00020   1.90746
   A30        1.91704   0.00001   0.00000  -0.00023  -0.00023   1.91681
   A31        1.94366  -0.00006   0.00000  -0.00025  -0.00025   1.94342
   A32        1.91466   0.00003   0.00000   0.00026   0.00026   1.91492
   A33        1.90041   0.00001   0.00000  -0.00007  -0.00007   1.90034
   A34        1.86907   0.00003   0.00000   0.00026   0.00026   1.86933
   A35        1.93877   0.00002   0.00000   0.00004   0.00004   1.93881
   A36        1.89655  -0.00003   0.00000  -0.00023  -0.00023   1.89632
   A37        1.91736  -0.00010   0.00000  -0.00061  -0.00061   1.91675
   A38        1.89044   0.00006   0.00000   0.00036   0.00036   1.89080
   A39        1.96134   0.00009   0.00000   0.00054   0.00054   1.96188
   A40        2.16661  -0.00011   0.00000  -0.00106  -0.00106   2.16555
   A41        1.87914   0.00007   0.00000  -0.00010  -0.00011   1.87904
   A42        1.93449  -0.00001   0.00000  -0.00105  -0.00106   1.93343
   A43        2.16732  -0.00013   0.00000  -0.00204  -0.00204   2.16528
   A44        1.92203  -0.00007   0.00000  -0.00047  -0.00047   1.92157
   A45        1.97289  -0.00003   0.00000  -0.00013  -0.00013   1.97276
   A46        1.87561   0.00001   0.00000   0.00009   0.00009   1.87570
   A47        1.24210  -0.00011   0.00000  -0.00063  -0.00063   1.24147
    D1        3.07385  -0.00004   0.00000  -0.00189  -0.00189   3.07196
    D2       -1.12959  -0.00006   0.00000  -0.00195  -0.00195  -1.13155
    D3        0.99274  -0.00003   0.00000  -0.00201  -0.00201   0.99074
    D4        1.01080  -0.00002   0.00000  -0.00162  -0.00162   1.00918
    D5        3.09055  -0.00003   0.00000  -0.00168  -0.00168   3.08886
    D6       -1.07030   0.00000   0.00000  -0.00174  -0.00174  -1.07204
    D7       -1.09009  -0.00001   0.00000  -0.00189  -0.00189  -1.09197
    D8        0.98966  -0.00003   0.00000  -0.00195  -0.00195   0.98771
    D9        3.11199   0.00000   0.00000  -0.00200  -0.00200   3.10999
   D10        2.85842  -0.00005   0.00000  -0.00257  -0.00257   2.85585
   D11       -1.36013   0.00001   0.00000  -0.00192  -0.00192  -1.36205
   D12        0.75293  -0.00010   0.00000  -0.00299  -0.00299   0.74994
   D13       -1.10399   0.00005   0.00000   0.00083   0.00084  -1.10316
   D14        3.13912  -0.00009   0.00000   0.00002   0.00002   3.13914
   D15        1.00493   0.00004   0.00000   0.00127   0.00127   1.00620
   D16       -0.96179  -0.00001   0.00000   0.00126   0.00126  -0.96053
   D17       -3.09943   0.00000   0.00000   0.00113   0.00113  -3.09830
   D18        1.10664  -0.00001   0.00000   0.00132   0.00132   1.10796
   D19       -3.07701   0.00003   0.00000   0.00149   0.00149  -3.07552
   D20        1.06854   0.00003   0.00000   0.00136   0.00136   1.06990
   D21       -1.00858   0.00003   0.00000   0.00155   0.00155  -1.00703
   D22        1.09977   0.00002   0.00000   0.00164   0.00164   1.10141
   D23       -1.03787   0.00002   0.00000   0.00151   0.00151  -1.03636
   D24       -3.11499   0.00002   0.00000   0.00170   0.00170  -3.11329
   D25        0.98282   0.00008   0.00000   0.00235   0.00235   0.98517
   D26       -2.84202   0.00005   0.00000   0.00170   0.00170  -2.84031
   D27        3.07730   0.00006   0.00000   0.00256   0.00256   3.07986
   D28       -0.74753   0.00004   0.00000   0.00191   0.00191  -0.74562
   D29       -1.11061   0.00004   0.00000   0.00229   0.00229  -1.10832
   D30        1.34774   0.00002   0.00000   0.00164   0.00164   1.34938
   D31        0.95177   0.00000   0.00000  -0.00007  -0.00007   0.95170
   D32        3.06527  -0.00004   0.00000  -0.00054  -0.00054   3.06473
   D33       -1.12895  -0.00003   0.00000  -0.00062  -0.00062  -1.12956
   D34        3.05124   0.00000   0.00000  -0.00014  -0.00014   3.05110
   D35       -1.11844  -0.00004   0.00000  -0.00061  -0.00061  -1.11905
   D36        0.97052  -0.00002   0.00000  -0.00069  -0.00069   0.96984
   D37       -1.12468   0.00002   0.00000  -0.00005  -0.00005  -1.12473
   D38        0.98882  -0.00002   0.00000  -0.00051  -0.00051   0.98831
   D39        3.07779   0.00000   0.00000  -0.00059  -0.00059   3.07720
   D40        3.01996   0.00007   0.00000   0.00050   0.00050   3.02046
   D41       -0.84123  -0.00005   0.00000  -0.00344  -0.00344  -0.84467
   D42        0.89821   0.00007   0.00000   0.00031   0.00031   0.89852
   D43       -2.96298  -0.00006   0.00000  -0.00363  -0.00363  -2.96661
   D44       -1.19406   0.00005   0.00000   0.00021   0.00021  -1.19385
   D45        1.22794  -0.00008   0.00000  -0.00373  -0.00373   1.22421
   D46       -3.05452   0.00001   0.00000  -0.00103  -0.00103  -3.05555
   D47       -0.99174  -0.00002   0.00000  -0.00099  -0.00099  -0.99273
   D48        1.10540  -0.00001   0.00000  -0.00140  -0.00140   1.10400
   D49        1.18000  -0.00004   0.00000  -0.00135  -0.00135   1.17866
   D50       -3.04041  -0.00007   0.00000  -0.00130  -0.00130  -3.04171
   D51       -0.94326  -0.00006   0.00000  -0.00171  -0.00171  -0.94498
   D52       -0.97792   0.00004   0.00000  -0.00026  -0.00027  -0.97818
   D53        1.08485   0.00001   0.00000  -0.00022  -0.00022   1.08463
   D54       -3.10119   0.00002   0.00000  -0.00063  -0.00063  -3.10182
   D55        2.62010  -0.00003   0.00000  -0.00317  -0.00317   2.61693
   D56       -1.58641  -0.00004   0.00000  -0.00338  -0.00338  -1.58979
   D57        0.55488  -0.00009   0.00000  -0.00396  -0.00396   0.55092
   D58       -3.12808   0.00002   0.00000   0.00130   0.00130  -3.12678
   D59       -1.06204   0.00004   0.00000   0.00163   0.00163  -1.06041
   D60        1.01142   0.00003   0.00000   0.00146   0.00146   1.01289
   D61        1.06017  -0.00003   0.00000   0.00108   0.00108   1.06125
   D62        3.12621  -0.00001   0.00000   0.00141   0.00141   3.12762
   D63       -1.08351  -0.00002   0.00000   0.00124   0.00124  -1.08227
   D64       -1.00753   0.00001   0.00000   0.00138   0.00138  -1.00615
   D65        1.05851   0.00002   0.00000   0.00172   0.00172   1.06022
   D66        3.13197   0.00001   0.00000   0.00155   0.00155   3.13352
   D67        1.09844  -0.00002   0.00000   0.00052   0.00052   1.09897
   D68       -3.05100   0.00003   0.00000   0.00100   0.00100  -3.05000
   D69       -0.98975   0.00001   0.00000   0.00097   0.00097  -0.98877
   D70       -0.96419   0.00005   0.00000   0.00249   0.00249  -0.96170
   D71       -3.05741   0.00003   0.00000   0.00215   0.00215  -3.05526
   D72        1.15733   0.00003   0.00000   0.00225   0.00225   1.15958
   D73        0.24082  -0.00003   0.00000  -0.00258  -0.00258   0.23824
   D74        2.57268   0.00004   0.00000  -0.00253  -0.00253   2.57015
   D75        0.33896   0.00008   0.00000   0.00318   0.00318   0.34214
   D76        2.61862   0.00004   0.00000  -0.00049  -0.00048   2.61814
         Item               Value     Threshold  Converged?
 Maximum Force            0.000349     0.000450     YES
 RMS     Force            0.000070     0.000300     YES
 Maximum Displacement     0.009932     0.001800     NO 
 RMS     Displacement     0.002044     0.001200     NO 
 Predicted change in Energy=-3.510977D-06
 GradGradGradGradGradGradGradGradGradGradGradGradGradGradGradGradGradGrad

                          Input orientation:                          
 ---------------------------------------------------------------------
 Center     Atomic      Atomic             Coordinates (Angstroms)
 Number     Number       Type             X           Y           Z
 ---------------------------------------------------------------------
      1          6           0        0.078155    0.395888    0.454275
      2          6           0       -0.593873    1.706218    0.059315
      3          6           0       -0.276885    2.017228   -1.386849
      4          6           0        1.228089    2.029528   -1.606518
      5          6           0        1.812820    0.699347   -1.119942
      6          6           0        3.327082    0.659275   -1.186850
      7          8           0       -0.164553    0.203098    1.802344
      8          8           0       -1.998131    1.620574    0.188359
      9          8           0       -0.864395    3.263897   -1.706977
     10          8           0        1.424824    2.223481   -2.992516
     11          8           0        1.469205    0.501876    0.245088
     12          8           0        3.827696   -0.585129   -0.750040
     13          1           0       -0.321675   -0.434608   -0.149772
     14          1           0       -0.191985    2.500056    0.705261
     15          1           0       -0.710036    1.229935   -2.024042
     16          1           0        1.667246    2.853771   -1.027480
     17          1           0        1.399533   -0.119156   -1.731648
     18          1           0        0.012037   -0.713997    2.038135
     19          1           0       -2.204603    1.367302    1.096134
     20          1           0       -0.567875    3.508634   -2.592403
     21          1           0        2.250435    2.691974   -3.146732
     22          1           0        3.477369   -0.743831    0.134057
     23          1           0        3.653999    0.792104   -2.220875
     24          1           0        3.731874    1.482960   -0.581554
     25         11           0       -3.119805    3.335159   -0.998407
 ---------------------------------------------------------------------
                    Distance matrix (angstroms):
                    1          2          3          4          5
     1  C    0.000000
     2  C    1.524657   0.000000
     3  C    2.478817   1.512811   0.000000
     4  C    2.870190   2.489794   1.520970   0.000000
     5  C    2.362056   2.862972   2.484938   1.532334   0.000000
     6  C    3.649409   4.245339   3.856502   2.541552   1.516269
     7  O    1.383245   2.341333   3.670782   4.110431   3.563148
     8  O    2.425187   1.412773   2.366707   3.714475   4.133239
     9  O    3.712800   2.370513   1.414862   2.431511   3.753533
    10  O    4.127224   3.695453   2.348727   1.413263   2.445416
    11  O    1.410678   2.396089   2.829901   2.412530   1.421398
    12  O    4.058550   5.045355   4.901568   3.785227   2.417939
    13  H    1.102026   2.168166   2.746609   3.255125   2.604448
    14  H    2.136233   1.099518   2.148780   2.753603   3.254714
    15  H    2.731105   2.140261   1.101574   2.137757   2.731982
    16  H    3.280548   2.758742   2.146763   1.098872   2.161315
    17  H    2.605680   3.242408   2.737407   2.159142   1.102242
    18  H    1.935156   3.184383   4.390168   4.721145   3.900489
    19  H    2.562541   1.945330   3.209939   4.418851   4.636469
    20  H    4.403270   3.206398   1.939672   2.526897   3.965847
    21  H    4.791457   4.397788   3.152747   1.963743   2.875751
    22  H    3.599466   4.752193   4.902144   3.972453   2.534955
    23  H    4.483310   4.907065   4.200997   2.791718   2.147230
    24  H    3.950231   4.378658   4.123601   2.760114   2.141653
    25  Na   4.580016   3.186308   3.157535   4.580246   5.594021
                    6          7          8          9         10
     6  C    0.000000
     7  O    4.618971   0.000000
     8  O    5.583296   2.824216   0.000000
     9  O    4.962164   4.708886   2.752847   0.000000
    10  O    3.053810   5.440474   4.711484   2.824110   0.000000
    11  O    2.350942   2.276726   3.643779   4.109137   3.667147
    12  O    1.410659   4.803542   6.299681   6.143814   4.323284
    13  H    3.947852   2.059639   2.673689   4.049490   4.265781
    14  H    4.399135   2.545656   2.074329   2.618106   4.045259
    15  H    4.162315   3.999147   2.589692   2.064306   2.546116
    16  H    2.756133   4.288294   4.053890   2.653134   2.077835
    17  H    2.149001   3.878056   4.272846   4.070753   2.660522
    18  H    4.824513   0.963246   3.593420   5.533320   5.994347
    19  H    6.026015   2.452736   0.964797   3.640146   5.533791
    20  H    5.026442   5.513895   3.652812   0.965298   2.404695
    21  H    3.021948   6.043181   5.506455   3.478816   0.961718
    22  H    1.932896   4.116242   5.964433   6.188877   4.774237
    23  H    1.092578   5.578043   6.199786   5.175880   2.759255
    24  H    1.099407   4.743749   5.783136   5.056086   3.418127
    25  Na   6.982709   5.136880   2.367777   2.365169   5.085858
                   11         12         13         14         15
    11  O    0.000000
    12  O    2.781068   0.000000
    13  H    2.059166   4.195266   0.000000
    14  H    2.638946   5.272011   3.059437   0.000000
    15  H    3.229259   5.050599   2.536615   3.054617   0.000000
    16  H    2.681428   4.070695   3.942031   2.565978   3.046547
    17  H    2.073166   2.660199   2.358898   3.915575   2.521076
    18  H    2.610882   4.727556   2.230775   3.485443   4.560871
    19  H    3.869123   6.603710   2.888699   2.342338   3.462383
    20  H    4.608865   6.282853   4.645020   3.468878   2.352809
    21  H    4.112334   4.355604   5.037165   4.565096   3.487461
    22  H    2.365763   0.964128   3.822160   4.930845   5.107593
    23  H    3.307345   2.022449   4.647609   5.125521   4.390358
    24  H    2.601063   2.077152   4.504970   4.252886   4.677110
    25  Na   5.534690   7.981110   4.770834   3.488842   3.360191
                   16         17         18         19         20
    16  H    0.000000
    17  H    3.066890   0.000000
    18  H    4.986650   4.060818   0.000000
    19  H    4.659457   4.816192   3.183185   0.000000
    20  H    2.805992   4.215739   6.293551   4.568313   0.000000
    21  H    2.203978   3.260206   6.594991   6.293174   2.986149
    22  H    4.191474   2.861551   3.954103   6.137368   6.471556
    23  H    3.101911   2.480394   5.802706   6.756969   5.034062
    24  H    2.518068   3.054391   5.052383   6.170071   5.160883
    25  Na   4.811282   5.735360   5.951864   3.016149   3.013846
                   21         22         23         24         25
    21  H    0.000000
    22  H    4.906495   0.000000
    23  H    2.537066   2.817091   0.000000
    24  H    3.199456   2.352758   1.780652   0.000000
    25  Na   5.819663   7.838581   7.337982   7.109847   0.000000
 Symmetry turned off by external request.
 Stoichiometry    C6H12NaO6(1+)
 Framework group  C1[X(C6H12NaO6)]
 Deg. of freedom    69
 Full point group                 C1      NOp   1
 Rotational constants (GHZ):      1.1454501      0.4932314      0.3557266
 Standard basis: 6-31+G(2df,p) (6D, 7F)
 Integral buffers will be    131072 words long.
 Raffenetti 2 integral format.
 Two-electron integral symmetry is turned off.
   480 basis functions,   732 primitive gaussians,   519 cartesian basis functions
    53 alpha electrons       53 beta electrons
       nuclear repulsion energy       963.3889455246 Hartrees.
 NAtoms=   25 NActive=   25 NUniq=   25 SFac= 1.00D+00 NAtFMM=   50 NAOKFM=F Big=F
 ------------------------------------------------------------------------------
 Polarizable Continuum Model (PCM)
 =================================
 Model                : C-PCM.
 Atomic radii         : UFF (Universal Force Field).
 Polarization charges : Total charges.
 Charge compensation  : None.
 Solution method      : Matrix inversion.
 Cavity type          : Scaled VdW (van der Waals Surface) (Alpha=1.100).
 Cavity algorithm     : GePol (No added spheres)
                        Default sphere list used, NSphG=   25.
                        Lebedev-Laikov grids with approx.  5.0 points / Ang**2.
                        Smoothing algorithm: Karplus/York (Gamma=1.0000).
                        Polarization charges: spherical gaussians, with
                                              point-specific exponents (IZeta= 3).
                        Self-potential: point-specific (ISelfS= 7).
                        Self-field    : sphere-specific E.n sum rule (ISelfD= 2).
 1st derivatives      : Analytical E(r).r(x)/FMM algorithm (CHGder, D1EAlg=3).
                        Cavity 1st derivative terms included.
 Solvent              : Water, Eps=  78.355300 Eps(inf)=   1.777849
 ------------------------------------------------------------------------------
 One-electron integrals computed using PRISM.
 NBasis=   480 RedAO= T  NBF=   480
 NBsUse=   480 1.00D-06 NBFU=   480
 Initial guess read from the read-write file.
 B after Tr=     0.000000    0.000000    0.000000
         Rot=    1.000000    0.000000    0.000000    0.000000 Ang=   0.00 deg.
 Requested convergence on RMS density matrix=1.00D-06 within 128 cycles.
 Requested convergence on MAX density matrix=1.00D-04.
 Requested convergence on             energy=1.00D-04.
 No special actions if energy rises.
 Error on total polarization charges =  0.01076
 SCF Done:  E(RM062X) =  -849.236550710     A.U. after    3 cycles
             Convg  =    0.9423D-06             -V/T =  2.0058
 QCSCF skips out because SCF is already converged.
 D1PCM: C-PCM CHGder 1st derivatives, ID1Alg=3 FixD1E=F DoIter=F DoCFld=F I1PDM=0.
 Calling FoFJK, ICntrl=      2127 FMM=F ISym2X=0 I1Cent= 0 IOpClX= 0 NMat=1 NMatS=1 NMatT=0.
 -------------------------------------------------------------------
 Center     Atomic                   Forces (Hartrees/Bohr)
 Number     Number              X              Y              Z
 -------------------------------------------------------------------
      1        6          -0.000126890    0.000004085   -0.000071133
      2        6          -0.000031916   -0.000114052    0.000051408
      3        6          -0.000064562    0.000102050   -0.000011415
      4        6          -0.000026671    0.000015107    0.000055564
      5        6           0.000032694    0.000024784    0.000004075
      6        6          -0.000081983    0.000083221   -0.000037533
      7        8           0.000049225    0.000040626    0.000087503
      8        8           0.000276026   -0.000179018   -0.000016038
      9        8           0.000480347   -0.000047332    0.000052057
     10        8           0.000065361   -0.000105260   -0.000085692
     11        8           0.000068437    0.000012534    0.000016744
     12        8           0.000090015   -0.000044588    0.000045825
     13        1           0.000014743    0.000007414    0.000006631
     14        1           0.000002277    0.000002801   -0.000006262
     15        1          -0.000002214   -0.000038892    0.000015836
     16        1           0.000003132   -0.000020861   -0.000001912
     17        1           0.000000001   -0.000009462   -0.000000905
     18        1          -0.000071588    0.000010658   -0.000023560
     19        1          -0.000100790    0.000126154   -0.000000161
     20        1          -0.000180328    0.000034119   -0.000069041
     21        1          -0.000043703    0.000046063    0.000019368
     22        1          -0.000047563    0.000021171    0.000011228
     23        1           0.000011133   -0.000021263    0.000026275
     24        1           0.000016373   -0.000013068    0.000011998
     25       11          -0.000331554    0.000063008   -0.000080861
 -------------------------------------------------------------------
 Cartesian Forces:  Max     0.000480347 RMS     0.000094642

 GradGradGradGradGradGradGradGradGradGradGradGradGradGradGradGradGradGrad
 Berny optimization.
 Using GEDIIS/GDIIS optimizer.
 Internal  Forces:  Max     0.000210834 RMS     0.000038080
 Search for a local minimum.
 Step number   2 out of a maximum of  150
 All quantities printed in internal units (Hartrees-Bohrs-Radians)
 Mixed Optimization -- En-DIIS/RFO-DIIS
 Swaping is turned off.
 Update second derivatives using D2CorX and points    1    2
 DE= -5.44D-06 DEPred=-3.51D-06 R= 1.55D+00
 SS=  1.41D+00  RLast= 1.66D-02 DXNew= 5.0454D-01 4.9763D-02
 Trust test= 1.55D+00 RLast= 1.66D-02 DXMaxT set to 3.00D-01
 ITU=  1  0
     Eigenvalues ---    0.00560   0.00686   0.00736   0.01083   0.01396
     Eigenvalues ---    0.01549   0.01572   0.01800   0.01979   0.02666
     Eigenvalues ---    0.02990   0.03279   0.04406   0.04580   0.04732
     Eigenvalues ---    0.04912   0.05089   0.05136   0.05583   0.05696
     Eigenvalues ---    0.05964   0.06034   0.06124   0.06363   0.06532
     Eigenvalues ---    0.07033   0.08019   0.08275   0.09441   0.10718
     Eigenvalues ---    0.11212   0.11540   0.11907   0.13555   0.13894
     Eigenvalues ---    0.14413   0.15931   0.16000   0.16117   0.16465
     Eigenvalues ---    0.17713   0.18987   0.19302   0.20071   0.22168
     Eigenvalues ---    0.25979   0.27776   0.29399   0.30330   0.30715
     Eigenvalues ---    0.33432   0.33472   0.33510   0.33741   0.33800
     Eigenvalues ---    0.33804   0.34523   0.40017   0.40970   0.41977
     Eigenvalues ---    0.42741   0.43459   0.46001   0.48506   0.54358
     Eigenvalues ---    0.54486   0.54639   0.54922   0.55507
 En-DIIS/RFO-DIIS IScMMF=        0 using points:     2    1
 RFO step:  Lambda=-1.18604859D-06.
 DidBck=F Rises=F RFO-DIIS coefs:    2.09781   -1.09781
 Iteration  1 RMS(Cart)=  0.00287240 RMS(Int)=  0.00001281
 Iteration  2 RMS(Cart)=  0.00001245 RMS(Int)=  0.00000408
 Iteration  3 RMS(Cart)=  0.00000000 RMS(Int)=  0.00000408
 Variable       Old X    -DE/DX   Delta X   Delta X   Delta X     New X
                                  (DIIS)     (GDIIS)  (Total)
    R1        2.88118  -0.00007   0.00024  -0.00057  -0.00033   2.88085
    R2        2.61395   0.00005   0.00027   0.00014   0.00041   2.61436
    R3        2.66579   0.00008   0.00054   0.00023   0.00077   2.66657
    R4        2.08253  -0.00001  -0.00017  -0.00002  -0.00019   2.08234
    R5        2.85880  -0.00001   0.00049   0.00006   0.00054   2.85934
    R6        2.66975  -0.00008  -0.00077  -0.00004  -0.00082   2.66894
    R7        2.07779   0.00000   0.00016  -0.00002   0.00013   2.07792
    R8        2.87422  -0.00002   0.00048  -0.00026   0.00022   2.87444
    R9        2.67370  -0.00001  -0.00065   0.00004  -0.00062   2.67309
   R10        2.08167   0.00001   0.00003   0.00007   0.00009   2.08177
   R11        2.89569  -0.00001  -0.00011  -0.00007  -0.00018   2.89551
   R12        2.67068   0.00006   0.00009   0.00025   0.00034   2.67102
   R13        2.07657  -0.00001  -0.00006  -0.00006  -0.00012   2.07645
   R14        2.86533  -0.00002  -0.00014  -0.00012  -0.00025   2.86508
   R15        2.68605   0.00003  -0.00013   0.00017   0.00004   2.68610
   R16        2.08294   0.00001   0.00000   0.00008   0.00008   2.08301
   R17        2.66576   0.00005   0.00087   0.00001   0.00088   2.66664
   R18        2.06467  -0.00001   0.00001  -0.00008  -0.00007   2.06460
   R19        2.07758  -0.00001  -0.00014   0.00000  -0.00015   2.07743
   R20        1.82027  -0.00002   0.00012  -0.00009   0.00003   1.82030
   R21        1.82320   0.00000  -0.00013   0.00003  -0.00010   1.82310
   R22        4.47445   0.00011   0.00252   0.00314   0.00567   4.48012
   R23        1.82415   0.00000  -0.00009   0.00003  -0.00005   1.82410
   R24        4.46952   0.00021   0.00290   0.00461   0.00751   4.47703
   R25        1.81738  -0.00002   0.00011  -0.00010   0.00001   1.81739
   R26        1.82194   0.00001   0.00013  -0.00001   0.00012   1.82206
    A1        1.87015  -0.00002   0.00091  -0.00055   0.00036   1.87051
    A2        1.90885  -0.00001   0.00060  -0.00016   0.00044   1.90929
    A3        1.92385   0.00000   0.00016  -0.00021  -0.00004   1.92380
    A4        1.90499   0.00002  -0.00095   0.00042  -0.00053   1.90447
    A5        1.94496   0.00001  -0.00054   0.00032  -0.00022   1.94473
    A6        1.91039   0.00000  -0.00015   0.00016   0.00001   1.91040
    A7        1.90918   0.00003   0.00041   0.00017   0.00058   1.90976
    A8        1.94159  -0.00001  -0.00036  -0.00042  -0.00078   1.94081
    A9        1.88305   0.00000   0.00024   0.00021   0.00045   1.88350
[...]
 .00382219,0.00163028,0.07804932,0.20650552,-0.00688488,-0.00212079,0.0
 0067286,0.00023937,0.00048393,-0.00011935,0.00023454,0.00010251,0.0001
 2596,0.00262666,0.00684396,0.00505463,-0.04979127,-0.09726961,-0.11342
 573,0.00083544,0.00161655,0.00283262,0.00094103,0.00089511,-0.00021736
 ,0.00047510,-0.00028980,0.00014712,-0.00017525,0.00003123,0.00002203,0
 .00015569,-0.00096180,0.00187293,-0.00397733,-0.02181658,-0.03935824,-
 0.00006446,0.00006998,-0.00025264,0.00133891,0.00083186,0.00032081,-0.
 00007052,0.00008891,0.00001576,0.00011519,-0.00000579,-0.00011251,-0.0
 0063308,0.00189725,-0.00052711,0.05412401,0.10973501,0.14168287,-0.000
 50678,-0.00847773,0.00317391,0.00049931,0.00079890,-0.00100520,-0.0000
 9551,0.00036218,0.00031877,-0.00000882,-0.00005579,-0.00012428,-0.0004
 7231,0.00050018,0.00061415,-0.00005115,-0.00002521,0.00001119,-0.02222
 445,0.09351185,-0.01672744,0.00085568,-0.00002103,-0.00057186,-0.00001
 303,0.00015469,-0.00031504,0.00001639,0.00010323,-0.00012946,0.0004089
 7,-0.00068855,0.00049182,0.00006267,-0.00001200,-0.00002713,-0.0004086
 9,0.00071562,0.00100654,0.00000365,0.00001227,0.00008504,-0.00002976,-
 0.00003581,-0.00000960,0.00000625,-0.00002241,0.00001096,-0.00002559,-
 0.00006464,-0.00006632,0.02130468,-0.00033151,-0.00409753,-0.00133704,
 0.00035326,0.00100307,0.00072486,0.00025243,0.00012225,0.00007988,-0.0
 0001486,-0.00023649,0.00006916,0.00022851,0.00004417,0.00083020,-0.000
 13788,0.00012362,-0.00029943,0.08524276,-0.49008747,0.12576360,-0.0005
 1386,0.00032431,-0.00026075,-0.00010839,0.00027102,-0.00023377,0.00003
 602,0.00017573,-0.00025293,0.00111348,0.00005445,-0.00208835,0.0001383
 8,-0.00008553,0.00001256,-0.00002138,0.00221055,-0.00218915,-0.0000526
 5,0.00057047,-0.00002428,-0.00002479,0.00000385,0.00009039,0.00000020,
 0.00002512,0.00000128,-0.00003016,-0.00000229,-0.00009091,-0.08646738,
 0.48992799,-0.00818222,0.04602252,-0.01842395,0.00227485,-0.00016191,-
 0.00742877,-0.00091770,0.00134500,0.00084909,-0.00022113,0.00012500,0.
 00014745,0.00011587,-0.00003605,-0.00063923,0.00008963,-0.00011966,0.0
 0010464,-0.00471928,0.07494245,-0.06154845,0.00012744,-0.00044260,0.00
 069556,0.00012881,0.00029603,-0.00078802,0.00007490,-0.00012219,0.0001
 0917,-0.00041250,-0.00102533,0.00172951,-0.00006788,0.00003662,-0.0000
 0839,-0.00066645,-0.00022321,0.00162510,0.00020657,-0.00013431,0.00023
 087,-0.00003888,-0.00008285,-0.00002187,0.00002380,-0.00001318,-0.0000
 1047,0.00002439,-0.00001862,0.00001846,0.01281766,-0.12066189,0.083636
 71,-0.00239775,0.00113483,0.00346225,-0.01635434,-0.01071885,0.0432290
 7,-0.00825917,0.00027526,-0.00069433,0.00095423,-0.00048325,0.00152321
 ,-0.00003067,-0.00015544,0.00075378,-0.00003990,0.00005821,-0.00013798
 ,0.00167947,-0.00146570,-0.00020031,-0.06042433,-0.01768713,0.06243806
 ,0.00056605,0.00040582,-0.00089517,-0.00074713,-0.00013208,0.00027883,
 0.00184738,-0.00047850,-0.00093562,0.00004808,-0.00001000,-0.00002046,
 0.00001745,0.00001558,-0.00019405,0.00080744,-0.00062459,-0.00020225,0
 .00011124,0.00016573,-0.00027121,-0.00000118,-0.00003498,-0.00005240,-
 0.00001186,0.00001720,-0.00008733,0.00071981,0.00026179,-0.00059481,0.
 08069565,0.00282218,0.00110862,-0.00276808,-0.00149102,-0.00159979,0.0
 0187357,0.00062239,-0.00076290,-0.00030928,0.00016042,0.00047024,0.000
 16200,-0.00008434,0.00009441,-0.00031888,0.00002101,-0.00003107,0.0000
 7145,-0.00156376,0.00045672,0.00009604,-0.02928694,-0.03520599,0.12049
 410,-0.00028970,0.00024843,0.00018433,-0.00002438,-0.00000708,0.000021
 11,-0.00071547,-0.00027936,0.00060310,-0.00002139,0.00000490,0.0000044
 1,0.00002096,-0.00017916,0.00002873,0.00055116,0.00011510,0.00068626,0
 .00004963,0.00008816,0.00020996,0.00008916,-0.00003355,-0.00002403,0.0
 0000576,-0.00000332,0.00003315,-0.00030720,-0.00031966,0.00015659,0.02
 980552,0.03641172,-0.00049766,-0.00118879,0.00152886,0.00035719,-0.000
 01865,-0.00245672,0.00043790,0.00054392,0.00041130,0.00002591,0.000216
 20,0.00006666,0.00027094,-0.00010139,-0.00050185,0.00008600,-0.0000087
 1,0.00004075,-0.00024321,-0.00028595,-0.00065370,0.10940036,0.12304318
 ,-0.47335513,0.00002670,-0.00050947,0.00050626,-0.00024256,-0.00007779
 ,0.00028359,-0.00131562,0.00079758,-0.00028243,-0.00009897,0.00005215,
 -0.00000369,0.00019832,-0.00001839,-0.00013830,-0.00151118,-0.00026129
 ,0.00049168,-0.00003289,0.00009050,0.00039967,0.00007525,-0.00000040,0
 .00002433,0.00001447,0.00000993,0.00003220,0.00044422,-0.00013406,-0.0
 0026100,-0.10728701,-0.12220288,0.47450204,0.00132280,-0.00015092,-0.0
 0069792,-0.00306260,0.00388951,-0.00081963,0.00455440,0.00638693,-0.01
 895946,-0.00051554,0.00225457,-0.00374730,0.00032291,0.00044370,-0.000
 31029,-0.00024061,-0.00002335,-0.00005783,-0.00018522,0.00043695,-0.00
 025452,0.00025779,-0.00042193,0.00063758,-0.06446740,-0.02734959,0.157
 15195,0.00229303,-0.00236608,0.00068019,-0.00032336,-0.00043703,0.0006
 3385,0.00020394,-0.00020245,0.00013489,-0.00008654,0.00006580,-0.00000
 903,-0.00005801,-0.00003790,0.00023776,0.00008814,0.00053480,0.0005715
 8,-0.00028502,-0.00011135,0.00005917,0.00001278,-0.00011216,0.00002060
 ,-0.00001254,0.00000467,-0.00010593,0.00007806,-0.00014501,-0.00003366
 ,0.06076885,-0.00103389,0.00075712,0.00136225,0.00296353,-0.00578974,0
 .00009039,-0.00822896,-0.01614872,0.03848953,0.00090675,0.00092565,0.0
 0188440,-0.00065117,-0.00037187,0.00044125,0.00022619,0.00006397,-0.00
 006262,0.00024024,-0.00062607,0.00028066,0.00029542,0.00049594,-0.0006
 3818,-0.00961079,-0.05693602,0.08590064,-0.00178557,0.00038034,-0.0006
 4932,0.00026718,0.00020798,-0.00044906,-0.00020275,0.00017212,-0.00011
 511,-0.00003263,0.00001164,-0.00004728,0.00012083,0.00015008,-0.000085
 72,-0.00076699,0.00033440,0.00012766,0.00003613,-0.00002803,-0.0001934
 6,-0.00000874,-0.00002688,-0.00001801,0.00003793,0.00001404,0.00014112
 ,0.00004227,0.00003145,0.00000727,0.01823513,0.07592289,0.00041846,0.0
 0013860,-0.00027188,-0.00053624,0.00191758,0.00023849,0.00098572,0.003
 55205,-0.00908059,0.00050216,-0.00164361,0.00099806,0.00098487,0.00045
 166,-0.00093121,-0.00033660,-0.00023159,0.00018387,0.00001127,-0.00006
 903,0.00021117,-0.00051901,-0.00028024,0.00059262,0.13537611,0.1242006
 1,-0.44202436,-0.00020250,-0.00039214,-0.00036857,-0.00016785,-0.00003
 022,0.00013693,0.00034295,-0.00022884,0.00011060,-0.00003914,0.0000636
 3,0.00000379,0.00000543,0.00000458,0.00043707,0.00042561,-0.00145245,0
 .00067064,-0.00035060,0.00013953,-0.00020937,-0.00000047,-0.00006579,0
 .00002466,-0.00000860,-0.00002165,-0.00000749,0.00005035,-0.00008024,-
 0.00004835,-0.13695245,-0.12607460,0.44992508,-0.00053520,-0.00011812,
 0.00021448,-0.00038583,0.00027306,-0.00024534,-0.00089788,-0.00003849,
 0.00261985,-0.00373213,0.00047623,-0.00415892,0.00112399,-0.00057154,-
 0.00111657,0.00066632,0.00013884,-0.00034775,0.00010434,0.00003029,-0.
 00014649,0.00008411,-0.00004621,0.00013278,0.00073126,-0.00057352,0.00
 025340,-0.39164653,-0.23113949,0.07607546,-0.00016212,0.00093744,-0.00
 117164,-0.00029785,-0.00013887,0.00028900,0.00003691,0.00000226,0.0000
 1092,0.00001674,0.00000834,0.00010791,0.00052405,0.00022121,0.00003976
 ,0.00159159,0.00059682,-0.00245482,-0.00000019,0.00002194,0.00005150,-
 0.00001105,-0.00002500,0.00001615,-0.00003803,-0.00000248,-0.00000770,
 -0.00029898,-0.00020598,-0.00032801,0.39360755,-0.00021036,-0.00026329
 ,0.00019898,0.00049379,0.00012973,0.00048079,0.00117340,0.00038340,-0.
 00235558,-0.00093364,-0.00402228,-0.00296481,-0.00170978,-0.00127336,0
 .00177169,-0.00012719,-0.00098298,0.00180479,0.00008255,0.00013537,-0.
 00025855,0.00049989,0.00011127,-0.00056150,0.00030947,0.00006828,-0.00
 047566,-0.23143877,-0.13690314,0.04960622,0.00072352,0.00025027,-0.000
 18952,-0.00011849,0.00062909,-0.00088075,0.00002417,0.00003159,0.00000
 948,-0.00001901,-0.00004221,0.00001923,0.00014198,0.00011839,0.0000937
 3,0.00126545,0.00153409,-0.00127197,-0.00004242,0.00025128,-0.00002393
 ,-0.00001190,-0.00003202,0.00000558,0.00008492,0.00001234,-0.00000688,
 -0.00048981,0.00050062,0.00023821,0.22931437,0.14050058,0.00026374,-0.
 00011526,0.00006041,0.00133696,-0.00017446,0.00088245,0.00000821,0.001
 52699,-0.00725743,0.03786498,0.02152066,-0.01236808,0.00109192,0.00037
 669,-0.00146673,0.00015976,0.00103623,-0.00086082,-0.00008134,0.000006
 87,0.00006584,0.00025774,0.00015781,-0.00066609,-0.00056469,-0.0000304
 1,0.00064507,0.03002787,0.02232914,-0.04801708,-0.00061780,0.00006756,
 0.00005311,-0.00000237,-0.00048048,0.00046103,-0.00003102,0.00001137,-
 0.00001532,-0.00005356,-0.00005770,-0.00002364,-0.00028212,0.00011017,
 0.00014320,0.00020024,-0.00091225,0.00127900,-0.00002277,-0.00019869,0
 .00011636,-0.00000148,0.00001119,-0.00001372,0.00015071,-0.00000357,0.
 00002518,0.00049274,-0.00048598,-0.00015695,-0.06966764,-0.04519861,0.
 06706416,-0.00233631,-0.00137729,0.00151605,0.00014494,0.00050267,-0.0
 0010745,-0.00020678,0.00009627,-0.00023947,0.00009255,0.00045917,-0.00
 021967,0.00031181,0.00200163,-0.00402814,0.00468010,0.00574439,-0.0168
 0754,0.00036429,0.00021273,-0.00073638,0.00063685,-0.00032925,0.000018
 32,0.00017253,-0.00022351,0.00014489,-0.00018716,-0.00024831,0.0006171
 8,0.00189188,-0.00046249,0.00026770,-0.08676862,-0.02270796,0.19026676
 ,0.00026813,0.00012101,0.00005724,-0.00000607,-0.00000908,-0.00000547,
 -0.00000666,0.00000541,0.00001652,0.00003618,-0.00010859,0.00002253,-0
 .00018086,-0.00003827,0.00011324,-0.00007998,-0.00013343,0.00008939,-0
 .00008468,0.00003369,0.00006866,-0.00000690,0.00001073,-0.00003112,0.0
 0010807,-0.00007275,0.00005086,0.08227008,0.00117441,0.00081907,-0.001
 24322,-0.00007410,-0.00029901,0.00004727,0.00015720,-0.00000831,0.0000
 4748,-0.00055297,-0.00031372,0.00037717,0.00050664,0.00078094,0.001872
 34,-0.01191593,-0.01368985,0.04043912,-0.00013865,-0.00013414,0.000422
 37,-0.00039405,0.00020148,0.00000396,-0.00016653,0.00016504,-0.0000935
 7,0.00022891,0.00007942,-0.00034275,-0.00129172,-0.00032126,-0.0002481
 0,-0.00214276,-0.04500594,0.04948438,-0.00024570,-0.00006073,-0.000030
 16,0.00000370,0.00001292,0.00000210,-0.00002350,-0.00001325,-0.0000093
 0,-0.00000531,-0.00002368,-0.00001562,-0.00002266,-0.00003243,-0.00018
 498,0.00004531,0.00007287,-0.00004187,0.00004930,-0.00001831,-0.000042
 78,0.00000650,-0.00000881,0.00002913,-0.00008791,0.00009647,-0.0000561
 1,0.01317680,0.06227461,-0.00057221,-0.00018908,0.00002657,-0.00005989
 ,0.00002232,0.00011059,-0.00030235,-0.00023107,0.00012542,0.00096728,0
 .00053955,-0.00091869,0.00067239,-0.00119866,-0.00013818,0.00371723,0.
 00321717,-0.01361358,0.00010299,0.00006005,-0.00020872,0.00014858,-0.0
 0001928,-0.00005244,0.00036821,-0.00023810,0.00005452,-0.00013667,-0.0
 0004462,0.00029440,0.00062572,-0.00083750,0.00016227,0.16555366,0.0896
 0522,-0.43812051,-0.00002680,0.00001049,0.00001814,0.00000022,-0.00000
 231,-0.00001216,0.00002098,0.00001895,-0.00000366,0.00000327,-0.000054
 06,0.00001832,-0.00029687,0.00011819,-0.00016944,-0.00000086,-0.000015
 92,0.00001717,-0.00000800,0.00000342,0.00001665,-0.00003594,0.00003385
 ,-0.00005051,0.00001602,0.00006200,-0.00004196,-0.17021960,-0.09166980
 ,0.44982349,0.00215229,0.00033874,0.00073956,0.00010040,-0.00031505,0.
 00009384,-0.00006360,-0.00019148,0.00018741,0.00025342,0.00000248,0.00
 123179,-0.00375417,-0.00240231,0.03023275,-0.07847460,-0.01078744,0.08
 197242,-0.00098019,-0.00027862,0.00108020,-0.00030428,0.00019414,-0.00
 007014,0.00010532,0.00004062,-0.00013262,0.00080261,-0.00027433,-0.001
 00961,-0.01009489,-0.00045021,0.00159011,0.00556781,0.00556218,-0.0159
 1258,-0.00019804,-0.00008701,-0.00009220,-0.00000611,0.00002066,-0.000
 00956,0.00000293,-0.00000053,-0.00000890,-0.00005589,0.00011923,-0.000
 14346,0.00126395,-0.00053383,-0.00058923,0.00001327,0.00013135,-0.0000
 6169,0.00007178,-0.00003459,-0.00002857,-0.00007532,0.00005461,-0.0000
 0247,-0.00048507,0.00122264,-0.00051596,-0.00090030,0.00254578,-0.0009
 4402,0.08011803,-0.00018472,0.00035200,0.00017595,-0.00002867,0.000058
 19,-0.00004857,-0.00001058,-0.00001911,-0.00001582,-0.00017110,0.00007
 464,-0.00038692,-0.00355280,-0.00011504,0.00013438,-0.00529113,-0.0494
 2408,0.01298398,0.00008043,0.00000750,-0.00015536,0.00002257,-0.000034
 02,0.00002662,-0.00004187,0.00002742,0.00000697,0.00001932,-0.00014516
 ,0.00040054,0.00139504,0.00072844,-0.00033224,-0.00811604,-0.01255648,
 0.03860481,0.00013184,-0.00000813,-0.00001035,-0.00000064,-0.00000656,
 0.00000962,-0.00001274,0.00000206,0.00001077,-0.00010910,-0.00002388,0
 .00000151,0.00022966,0.00017062,0.00027741,-0.00000226,-0.00001796,0.0
 0001094,-0.00001300,0.00000580,0.00000333,0.00003026,-0.00001877,-0.00
 000282,0.00107428,-0.00124497,0.00064404,0.00268035,-0.00514263,0.0022
 3740,0.00441486,0.06338405,-0.00059469,0.00007388,0.00044554,-0.000051
 39,0.00006541,0.00002585,-0.00007378,-0.00009133,0.00005591,0.00118192
 ,0.00016133,-0.00098629,-0.00051263,-0.00149742,-0.00082377,0.07942618
 ,0.02408183,-0.29120849,-0.00000299,0.00000645,-0.00010957,0.00009608,
 -0.00004337,-0.00000970,0.00012924,-0.00011817,0.00005753,-0.00135530,
 0.00075234,-0.00000481,0.00023469,0.00030316,0.00077977,0.00139557,0.0
 0807054,-0.01097173,0.00010498,0.00000236,0.00000628,-0.00000482,-0.00
 000335,-0.00000460,0.00001290,0.00000772,-0.00000506,0.00013571,0.0000
 1285,0.00004135,0.00036220,-0.00005738,0.00035291,-0.00001247,-0.00002
 309,0.00001539,-0.00001331,0.00000656,0.00001026,0.00002528,-0.0000093
 2,-0.00002497,-0.00015458,0.00004723,0.00022068,-0.00161059,0.00107087
 ,0.00166137,-0.08507003,-0.03401854,0.31497345,0.00003545,-0.00003985,
 -0.00004228,0.00011491,-0.00001832,-0.00009828,0.00015055,0.00008506,0
 .00012518,0.00126447,-0.00226645,0.00005503,-0.01777557,-0.02452469,-0
 .02168808,-0.08792703,-0.07191054,-0.05490414,-0.00002695,0.00007283,0
 .00016701,-0.00001918,-0.00000963,0.00002867,-0.00019299,0.00024467,0.
 00002949,0.00005175,0.00022570,-0.00016409,0.00333544,0.00081601,-0.00
 095961,0.00683929,0.01643970,0.00652377,0.00022886,0.00015228,0.000095
 50,-0.00001095,0.00002166,0.00002264,0.00017460,0.00012273,0.00004990,
 -0.00015001,0.00089835,0.00010301,-0.00598150,0.00033789,0.00107538,-0
 .00001396,0.00001514,-0.00002470,0.00000354,-0.00000305,-0.00000625,-0
 .00000190,-0.00003010,0.00002788,-0.00006250,0.00000639,-0.00007939,-0
 .00014439,-0.00088013,0.00045479,0.00493032,0.00745059,0.00636975,0.09
 515300,0.00028454,0.00020417,0.00012996,-0.00000101,-0.00000667,-0.000
 01518,0.00021274,0.00038702,0.00004404,-0.00007816,0.00104515,0.000712
 00,-0.00073523,0.00032425,-0.00181300,-0.07149335,-0.17489789,-0.10326
 793,-0.00007513,-0.00002435,0.00003521,-0.00003100,0.00000239,0.000006
 41,-0.00019364,0.00005014,-0.00000450,-0.00006331,-0.00003545,-0.00008
 579,0.00001662,0.00002317,0.00014088,-0.00227427,-0.04091351,-0.007893
 61,0.00007449,-0.00003079,-0.00006605,-0.00000794,-0.00000406,0.000002
 18,0.00012587,-0.00011749,-0.00005175,-0.00017356,0.00016628,-0.000098
 07,0.00039755,0.00048208,-0.00014737,0.00000390,0.00000467,-0.00000413
 ,0.00000222,-0.00000296,-0.00000215,0.00001230,-0.00001761,0.00001855,
 -0.00016201,-0.00002101,-0.00008834,0.00061933,0.00059703,-0.00144356,
 0.00072890,0.00394573,0.00119113,0.07280122,0.20884026,0.00052753,0.00
 029482,0.00011465,0.00001287,-0.00003514,-0.00000653,0.00009781,0.0001
 2698,0.00001548,-0.00017746,-0.00039408,0.00005843,0.00223159,-0.00009
 029,-0.00063510,-0.05564234,-0.10706425,-0.13859150,-0.00016036,-0.000
 07115,0.00009951,-0.00008166,0.00002770,0.00000495,-0.00010598,0.00006
 706,-0.00001742,-0.00032445,0.00047565,-0.00012659,-0.00062493,0.00046
 396,0.00175273,0.00341098,0.01348186,0.01132547,0.00008272,-0.00007751
 ,-0.00017640,-0.00001226,-0.00000029,0.00000551,0.00005482,-0.00002287
 ,-0.00000672,-0.00025737,0.00031912,-0.00001244,-0.00010563,0.00035192
 ,0.00091639,0.00000592,0.00001892,-0.00000915,0.00000902,-0.00000507,-
 0.00000782,0.00001902,-0.00001732,0.00000820,-0.00003571,-0.00016187,-
 0.00010670,0.00077729,0.00017036,0.00099611,-0.01255736,-0.02055409,-0
 .01449548,0.06284183,0.11270248,0.13889359,-0.00076200,0.00096760,-0.0
 0031500,-0.00353826,0.00106717,-0.00115857,-0.00385325,0.00452679,-0.0
 0087968,-0.00052172,-0.00060132,0.00036953,0.00035402,0.00042205,-0.00
 009071,-0.00029057,-0.00006885,0.00003021,0.00020645,-0.00059556,0.000
 60338,-0.00332126,0.00266930,-0.00195960,-0.00749509,-0.00118459,0.004
 34596,0.00071928,0.00001977,-0.00052479,0.00055381,-0.00032799,0.00005
 811,0.00028361,-0.00020949,0.00008957,0.00005238,-0.00011660,0.0000101
 9,0.00015888,0.00007846,-0.00003369,0.00004762,-0.00050607,0.00013188,
 0.00006025,0.00003593,-0.00002749,-0.00002684,-0.00003197,-0.00000699,
 0.00006296,0.00008331,0.00002370,0.00078887,-0.00021255,-0.00010066,-0
 .00028273,-0.00087936,0.00034424,-0.00004157,-0.00016841,0.00001439,-0
 .00006870,0.00004737,-0.00004813,0.00001035,0.00000546,-0.00001793,0.0
 0002477,0.00000891,0.00001411,0.01687876,0.00018709,-0.00077726,0.0002
 8616,0.00370411,0.00028184,-0.00028752,0.00193714,0.00001214,-0.000610
 08,0.00044151,-0.00029450,-0.00001020,0.00012680,-0.00011411,-0.000261
 53,0.00009185,-0.00001990,0.00003581,-0.00026340,0.00036816,-0.0003339
 3,0.00283532,-0.00665394,0.00513309,-0.00135130,-0.00226039,0.00121776
 ,-0.00026576,-0.00009701,0.00030468,-0.00078042,0.00036176,0.00005706,
 -0.00009005,0.00005589,-0.00001445,-0.00000240,0.00004294,0.00000128,-
 0.00056029,-0.00014449,-0.00006159,0.00009165,-0.00024673,-0.00012588,
 -0.00009646,0.00000256,0.00002612,0.00001374,0.00001299,0.00002271,-0.
 00005411,-0.00006925,0.00000595,-0.00051516,-0.00060475,0.00009550,-0.
 00045354,0.00000427,-0.00018091,0.00001453,0.00003251,0.00000314,0.000
 04675,-0.00002776,0.00001533,-0.00002076,0.00000032,0.00000831,-0.0000
 0745,-0.00000055,-0.00000687,-0.00502936,0.01013528,0.00002568,0.00037
 033,-0.00023684,-0.00295583,0.00005143,0.00078940,0.00116468,-0.001473
 15,0.00119453,-0.00023401,0.00037388,-0.00021743,-0.00024716,-0.000050
 51,0.00033404,0.00001989,0.00004524,-0.00005564,0.00014677,-0.00010924
 ,0.00010126,-0.00227319,0.00352981,-0.00568763,0.00332940,0.00134503,-
 0.00507216,0.00003997,0.00006352,-0.00008015,0.00058084,-0.00022948,-0
 .00008994,-0.00002262,0.00002479,-0.00002386,0.00000087,-0.00003431,-0
 .00000181,0.00025599,0.00007912,-0.00004374,-0.00001651,0.00012684,-0.
 00005005,0.00002068,-0.00000847,-0.00000731,-0.00000530,0.00000124,-0.
 00002618,0.00001956,0.00003120,-0.00001861,-0.00030104,0.00107726,-0.0
 0063046,0.00131934,0.00008696,-0.00036694,0.00000793,0.00001170,-0.000
 02197,-0.00002120,0.00001172,0.00000483,0.00002033,-0.00000355,-0.0000
 0182,-0.00000303,-0.00000140,0.00000082,-0.00087204,-0.00531993,0.0102
 0764\\0.00000379,-0.00000652,-0.00000305,0.00000259,-0.00000420,0.0000
 0708,-0.00000159,0.00000452,0.00000742,-0.00000262,0.00000467,0.000002
 63,-0.00000164,0.00000150,-0.00000726,-0.00000198,0.00000101,-0.000012
 68,0.00000918,-0.00001422,-0.00000294,0.00000347,-0.00000252,0.0000114
 0,-0.00000332,0.00000591,0.00001682,-0.00000693,0.00001214,0.00000291,
 0.00000301,-0.00000617,-0.00000730,-0.00000071,-0.00000134,-0.00002158
 ,0.00000103,-0.00000285,-0.00000649,0.00000570,-0.00000786,0.00001029,
 -0.00000449,0.00000829,0.00000460,-0.00000019,0.00000115,0.00000584,-0
 .00000420,0.00000541,-0.00001058,0.00000740,-0.00001587,-0.00000947,0.
 00000662,-0.00001024,0.00001046,-0.00000422,0.00001193,0.00001772,-0.0
 0000790,0.00001391,0.00000295,0.00000157,-0.00000677,-0.00002153,-0.00
 000538,0.00000703,-0.00001308,0.00000063,-0.00000266,-0.00000931,0.000
 00017,0.00000376,0.00002514\\\@


 THE WORLD IS MADE UP OF THE WILLS, THE WON'TS, AND THE CANT'S:
 THE WILLS DO EVERYTHING,
 THE WON'TS DO NOTHING,
 THE CAN'TS CAN'T DO ANYTHING.

                               -- FROM WALT DISNEY'S "BLACK HOLE"
 Job cpu time:  0 days  0 hours  0 minutes 25.3 seconds.
 File lengths (MBytes):  RWF=    980 Int=      0 D2E=      0 Chk=     27 Scr=      8
 Normal termination of Gaussian 09 at Thu Apr 12 11:34:12 2012.
