 Entering Gaussian System, Link 0=g09
 Initial command:
 /opt/gaussian//g09/l1.exe /scratch/g09/Gau-14876.inp -scrdir=/scratch/g09/
 Entering Link 1 = /opt/gaussian//g09/l1.exe PID=     14877.
  
 Copyright (c) 1988,1990,1992,1993,1995,1998,2003,2009,2010,
            Gaussian, Inc.  All Rights Reserved.
  
 This is part of the Gaussian(R) 09 program.  It is based on
 the Gaussian(R) 03 system (copyright 2003, Gaussian, Inc.),
 the Gaussian(R) 98 system (copyright 1998, Gaussian, Inc.),
 the Gaussian(R) 94 system (copyright 1995, Gaussian, Inc.),
 the Gaussian 92(TM) system (copyright 1992, Gaussian, Inc.),
 the Gaussian 90(TM) system (copyright 1990, Gaussian, Inc.),
 the Gaussian 88(TM) system (copyright 1988, Gaussian, Inc.),
 the Gaussian 86(TM) system (copyright 1986, Carnegie Mellon
 University), and the Gaussian 82(TM) system (copyright 1983,
 Carnegie Mellon University). Gaussian is a federally registered
 trademark of Gaussian, Inc.
  
 This software contains proprietary and confidential information,
 including trade secrets, belonging to Gaussian, Inc.
  
 This software is provided under written license and may be
 used, copied, transmitted, or stored only in accord with that
 written license.
  
 The following legend is applicable only to US Government
 contracts under FAR:
  
                    RESTRICTED RIGHTS LEGEND
  
 Use, reproduction and disclosure by the US Government is
 subject to restrictions as set forth in subparagraphs (a)
 and (c) of the Commercial Computer Software - Restricted
 Rights clause in FAR 52.227-19.
  
 Gaussian, Inc.
 340 Quinnipiac St., Bldg. 40, Wallingford CT 06492
  
  
 ---------------------------------------------------------------
 Warning -- This program may not be used in any manner that
 competes with the business of Gaussian, Inc. or will provide
 assistance to any competitor of Gaussian, Inc.  The licensee
 of this program is prohibited from giving any competitor of
 Gaussian, Inc. access to this program.  By using this program,
 the user acknowledges that Gaussian, Inc. is engaged in the
 business of creating and licensing software in the field of
 computational chemistry and represents and warrants to the
 licensee that it is not a competitor of Gaussian, Inc. and that
 it will not use this program in any manner prohibited above.
 ---------------------------------------------------------------
  

 Cite this work as:
 Gaussian 09, Revision B.01,
 M. J. Frisch, G. W. Trucks, H. B. Schlegel, G. E. Scuseria, 
 M. A. Robb, J. R. Cheeseman, G. Scalmani, V. Barone, B. Mennucci, 
 G. A. Petersson, H. Nakatsuji, M. Caricato, X. Li, H. P. Hratchian, 
 A. F. Izmaylov, J. Bloino, G. Zheng, J. L. Sonnenberg, M. Hada, 
 M. Ehara, K. Toyota, R. Fukuda, J. Hasegawa, M. Ishida, T. Nakajima, 
 Y. Honda, O. Kitao, H. Nakai, T. Vreven, J. A. Montgomery, Jr., 
 J. E. Peralta, F. Ogliaro, M. Bearpark, J. J. Heyd, E. Brothers, 
 K. N. Kudin, V. N. Staroverov, T. Keith, R. Kobayashi, J. Normand, 
 K. Raghavachari, A. Rendell, J. C. Burant, S. S. Iyengar, J. Tomasi, 
 M. Cossi, N. Rega, J. M. Millam, M. Klene, J. E. Knox, J. B. Cross, 
 V. Bakken, C. Adamo, J. Jaramillo, R. Gomperts, R. E. Stratmann, 
 O. Yazyev, A. J. Austin, R. Cammi, C. Pomelli, J. W. Ochterski, 
 R. L. Martin, K. Morokuma, V. G. Zakrzewski, G. A. Voth, 
 P. Salvador, J. J. Dannenberg, S. Dapprich, A. D. Daniels, 
 O. Farkas, J. B. Foresman, J. V. Ortiz, J. Cioslowski, 
 and D. J. Fox, Gaussian, Inc., Wallingford CT, 2010.
 
 ******************************************
 Gaussian 09:  EM64L-G09RevB.01 12-Aug-2010
                16-Dec-2011 
 ******************************************
 %chk=gaussian/glucose/gluc5elim02try2.chk
 %mem=30GB
 %nproc=8
 Will use up to    8 processors via shared memory.
 Default route:  MaxDisk=210GB
 ----------------------------------------------------------------------
 # opt(TS,calcFC,noeigen) freq=noraman m062x/6-31+g(2df,p) nosymm scrf=
 (solvent=ethanol) scf=xqc
 ----------------------------------------------------------------------
 1/5=1,10=4,11=1,14=-1,18=20,26=3,38=1/1,3;
 2/9=110,12=2,15=1,17=6,18=5,40=1/2;
 3/5=1,6=6,7=114,11=2,16=1,25=1,30=1,70=2201,71=2,72=4,74=-55/1,2,3;
 4//1;
 5/5=2,8=3,13=1,38=5,53=4/2,8;
 8/6=4,10=90,11=11/1;
 11/6=1,8=1,9=11,15=111,16=1,31=1/1,2,10;
 10/6=1,7=6,13=1,31=1/2;
 6/7=2,8=2,9=2,10=2,28=1/1;
 7/10=1,18=20,25=1,30=1/1,2,3,16;
 1/5=1,10=4,11=1,14=-1,18=20/3(2);
 2/9=110,15=1/2;
 99//99;
 2/9=110,15=1/2;
 3/5=1,6=6,7=114,11=2,16=1,25=1,30=1,70=2205,71=1,72=4,74=-55/1,2,3;
 4/5=5,16=3/1;
 5/5=2,8=3,13=1,38=5,53=4/2,8;
 7/30=1/1,2,3,16;
 1/5=1,11=1,14=-1,18=20/3(-5);
 2/9=110,15=1/2;
 6/7=2,8=2,9=2,10=2,19=2,28=1/1;
 99/9=1/99;
 ------------------------------------------------------------
 gluc5elim02try2 from glucose5m062xEtOH.log manual adjustment
 ------------------------------------------------------------
 Symbolic Z-matrix:
 Charge =  0 Multiplicity = 1
 6                     0.01052   0.20322   0.07945 
 6                    -0.46897   1.65489  -0.0676 
 6                     0.06125   2.24316  -1.28138 
 6                     1.587     2.12673  -1.34249 
 6                     1.98257   0.66397  -1.14693 
 6                     3.4848    0.47109  -1.03436 
 8                    -0.43029  -0.2937    1.29448 
 8                    -1.93285   0.46276  -1.53358 
 8                    -0.24947   3.617    -1.38168 
 8                     2.1059    2.55619  -2.58174 
 8                     1.42246   0.17672   0.06345 
 8                     4.02028   1.15961   0.07688 
 1                    -0.37231  -0.39804  -0.76195 
 1                    -0.85582   2.44921   0.58792 
 1                    -0.54749   1.47455  -1.94448 
 1                     2.01133   2.7181   -0.51797 
 1                     1.61218   0.07777  -2.00339 
 1                    -0.33395  -1.25192   1.30549 
 1                    -2.54282  -0.05758  -0.99917 
 1                    -1.20862   3.71081  -1.37531 
 1                     1.74902   3.43418  -2.75919 
 1                     3.55079   0.85419   0.86143 
 1                     3.69727  -0.60355  -0.96956 
 1                     3.9675    0.87154  -1.92831 
 

 GradGradGradGradGradGradGradGradGradGradGradGradGradGradGradGradGradGrad
 Berny optimization.
 Initialization pass.
                           ----------------------------
                           !    Initial Parameters    !
                           ! (Angstroms and Degrees)  !
 --------------------------                            --------------------------
 ! Name  Definition              Value          Derivative Info.                !
 --------------------------------------------------------------------------------
 ! R1    R(1,2)                  1.5359         calculate D2E/DX2 analytically  !
 ! R2    R(1,7)                  1.3848         calculate D2E/DX2 analytically  !
 ! R3    R(1,11)                 1.4123         calculate D2E/DX2 analytically  !
 ! R4    R(1,13)                 1.1027         calculate D2E/DX2 analytically  !
 ! R5    R(2,3)                  1.4493         calculate D2E/DX2 analytically  !
 ! R6    R(2,14)                 1.1001         calculate D2E/DX2 analytically  !
 ! R7    R(3,4)                  1.5314         calculate D2E/DX2 analytically  !
 ! R8    R(3,9)                  1.4121         calculate D2E/DX2 analytically  !
 ! R9    R(3,15)                 1.1837         calculate D2E/DX2 analytically  !
 ! R10   R(4,5)                  1.5279         calculate D2E/DX2 analytically  !
 ! R11   R(4,10)                 1.4105         calculate D2E/DX2 analytically  !
 ! R12   R(4,16)                 1.0998         calculate D2E/DX2 analytically  !
 ! R13   R(5,6)                  1.5187         calculate D2E/DX2 analytically  !
 ! R14   R(5,11)                 1.4199         calculate D2E/DX2 analytically  !
 ! R15   R(5,17)                 1.102          calculate D2E/DX2 analytically  !
 ! R16   R(6,12)                 1.4127         calculate D2E/DX2 analytically  !
 ! R17   R(6,23)                 1.0974         calculate D2E/DX2 analytically  !
 ! R18   R(6,24)                 1.092          calculate D2E/DX2 analytically  !
 ! R19   R(7,18)                 0.9631         calculate D2E/DX2 analytically  !
 ! R20   R(8,13)                 1.9421         calculate D2E/DX2 analytically  !
 ! R21   R(8,15)                 1.764          calculate D2E/DX2 analytically  !
 ! R22   R(8,19)                 0.9635         calculate D2E/DX2 analytically  !
 ! R23   R(9,20)                 0.9637         calculate D2E/DX2 analytically  !
 ! R24   R(10,21)                0.9642         calculate D2E/DX2 analytically  !
 ! R25   R(12,22)                0.964          calculate D2E/DX2 analytically  !
 ! A1    A(2,1,7)              108.893          calculate D2E/DX2 analytically  !
 ! A2    A(2,1,11)             109.1941         calculate D2E/DX2 analytically  !
 ! A3    A(2,1,13)             109.5069         calculate D2E/DX2 analytically  !
 ! A4    A(7,1,11)             108.7516         calculate D2E/DX2 analytically  !
 ! A5    A(7,1,13)             111.3039         calculate D2E/DX2 analytically  !
 ! A6    A(11,1,13)            109.16           calculate D2E/DX2 analytically  !
 ! A7    A(1,2,3)              110.4638         calculate D2E/DX2 analytically  !
 ! A8    A(1,2,14)             137.3219         calculate D2E/DX2 analytically  !
 ! A9    A(3,2,14)             109.5483         calculate D2E/DX2 analytically  !
 ! A10   A(2,3,4)              111.5338         calculate D2E/DX2 analytically  !
 ! A11   A(2,3,9)              111.9551         calculate D2E/DX2 analytically  !
 ! A12   A(2,3,15)              91.0            calculate D2E/DX2 analytically  !
 ! A13   A(4,3,9)              106.8796         calculate D2E/DX2 analytically  !
 ! A14   A(4,3,15)             116.147          calculate D2E/DX2 analytically  !
 ! A15   A(9,3,15)             118.6074         calculate D2E/DX2 analytically  !
 ! A16   A(3,4,5)              109.0039         calculate D2E/DX2 analytically  !
 ! A17   A(3,4,10)             112.237          calculate D2E/DX2 analytically  !
 ! A18   A(3,4,16)             108.2764         calculate D2E/DX2 analytically  !
 ! A19   A(5,4,10)             107.9813         calculate D2E/DX2 analytically  !
 ! A20   A(5,4,16)             108.5991         calculate D2E/DX2 analytically  !
 ! A21   A(10,4,16)            110.672          calculate D2E/DX2 analytically  !
 ! A22   A(4,5,6)              112.7784         calculate D2E/DX2 analytically  !
 ! A23   A(4,5,11)             109.603          calculate D2E/DX2 analytically  !
 ! A24   A(4,5,17)             108.8313         calculate D2E/DX2 analytically  !
 ! A25   A(6,5,11)             106.464          calculate D2E/DX2 analytically  !
 ! A26   A(6,5,17)             108.8154         calculate D2E/DX2 analytically  !
 ! A27   A(11,5,17)            110.3277         calculate D2E/DX2 analytically  !
 ! A28   A(5,6,12)             111.7984         calculate D2E/DX2 analytically  !
 ! A29   A(5,6,23)             108.6789         calculate D2E/DX2 analytically  !
 ! A30   A(5,6,24)             109.2669         calculate D2E/DX2 analytically  !
 ! A31   A(12,6,23)            110.9437         calculate D2E/DX2 analytically  !
 ! A32   A(12,6,24)            107.3172         calculate D2E/DX2 analytically  !
 ! A33   A(23,6,24)            108.7765         calculate D2E/DX2 analytically  !
 ! A34   A(1,7,18)             109.5856         calculate D2E/DX2 analytically  !
 ! A35   A(13,8,15)             73.4842         calculate D2E/DX2 analytically  !
 ! A36   A(13,8,19)             92.806          calculate D2E/DX2 analytically  !
 ! A37   A(15,8,19)            159.4058         calculate D2E/DX2 analytically  !
 ! A38   A(3,9,20)             108.2533         calculate D2E/DX2 analytically  !
 ! A39   A(4,10,21)            107.6246         calculate D2E/DX2 analytically  !
 ! A40   A(1,11,5)             113.4275         calculate D2E/DX2 analytically  !
 ! A41   A(6,12,22)            107.5284         calculate D2E/DX2 analytically  !
 ! A42   A(1,13,8)             109.9043         calculate D2E/DX2 analytically  !
 ! A43   A(3,15,8)             130.2299         calculate D2E/DX2 analytically  !
 ! D1    D(7,1,2,3)            175.5627         calculate D2E/DX2 analytically  !
 ! D2    D(7,1,2,14)            16.8846         calculate D2E/DX2 analytically  !
 ! D3    D(11,1,2,3)            56.9484         calculate D2E/DX2 analytically  !
 ! D4    D(11,1,2,14)         -101.7298         calculate D2E/DX2 analytically  !
 ! D5    D(13,1,2,3)           -62.5246         calculate D2E/DX2 analytically  !
 ! D6    D(13,1,2,14)          138.7972         calculate D2E/DX2 analytically  !
 ! D7    D(2,1,7,18)           165.8031         calculate D2E/DX2 analytically  !
 ! D8    D(11,1,7,18)          -75.3052         calculate D2E/DX2 analytically  !
 ! D9    D(13,1,7,18)           44.9872         calculate D2E/DX2 analytically  !
 ! D10   D(2,1,11,5)           -61.4975         calculate D2E/DX2 analytically  !
 ! D11   D(7,1,11,5)           179.8            calculate D2E/DX2 analytically  !
 ! D12   D(13,1,11,5)           58.1899         calculate D2E/DX2 analytically  !
 ! D13   D(2,1,13,8)           -22.0403         calculate D2E/DX2 analytically  !
 ! D14   D(7,1,13,8)            98.4146         calculate D2E/DX2 analytically  !
 ! D15   D(11,1,13,8)         -141.5342         calculate D2E/DX2 analytically  !
 ! D16   D(1,2,3,4)            -54.3928         calculate D2E/DX2 analytically  !
 ! D17   D(1,2,3,9)           -174.1037         calculate D2E/DX2 analytically  !
 ! D18   D(1,2,3,15)            64.3384         calculate D2E/DX2 analytically  !
 ! D19   D(14,2,3,4)           110.4447         calculate D2E/DX2 analytically  !
 ! D20   D(14,2,3,9)            -9.2662         calculate D2E/DX2 analytically  !
 ! D21   D(14,2,3,15)         -130.8241         calculate D2E/DX2 analytically  !
 ! D22   D(2,3,4,5)             53.7066         calculate D2E/DX2 analytically  !
 ! D23   D(2,3,4,10)           173.2803         calculate D2E/DX2 analytically  !
 ! D24   D(2,3,4,16)           -64.2624         calculate D2E/DX2 analytically  !
 ! D25   D(9,3,4,5)            176.3742         calculate D2E/DX2 analytically  !
 ! D26   D(9,3,4,10)           -64.0521         calculate D2E/DX2 analytically  !
 ! D27   D(9,3,4,16)            58.4052         calculate D2E/DX2 analytically  !
 ! D28   D(15,3,4,5)           -48.6861         calculate D2E/DX2 analytically  !
 ! D29   D(15,3,4,10)           70.8876         calculate D2E/DX2 analytically  !
 ! D30   D(15,3,4,16)         -166.6551         calculate D2E/DX2 analytically  !
 ! D31   D(2,3,9,20)           -59.4861         calculate D2E/DX2 analytically  !
 ! D32   D(4,3,9,20)           178.1098         calculate D2E/DX2 analytically  !
 ! D33   D(15,3,9,20)           44.4764         calculate D2E/DX2 analytically  !
 ! D34   D(2,3,15,8)            17.8797         calculate D2E/DX2 analytically  !
 ! D35   D(4,3,15,8)           132.5581         calculate D2E/DX2 analytically  !
 ! D36   D(9,3,15,8)           -97.9345         calculate D2E/DX2 analytically  !
 ! D37   D(3,4,5,6)           -173.4696         calculate D2E/DX2 analytically  !
 ! D38   D(3,4,5,11)           -55.055          calculate D2E/DX2 analytically  !
 ! D39   D(3,4,5,17)            65.6805         calculate D2E/DX2 analytically  !
 ! D40   D(10,4,5,6)            64.3501         calculate D2E/DX2 analytically  !
 ! D41   D(10,4,5,11)         -177.2353         calculate D2E/DX2 analytically  !
 ! D42   D(10,4,5,17)          -56.4998         calculate D2E/DX2 analytically  !
 ! D43   D(16,4,5,6)           -55.704          calculate D2E/DX2 analytically  !
 ! D44   D(16,4,5,11)           62.7106         calculate D2E/DX2 analytically  !
 ! D45   D(16,4,5,17)         -176.5539         calculate D2E/DX2 analytically  !
 ! D46   D(3,4,10,21)           51.827          calculate D2E/DX2 analytically  !
 ! D47   D(5,4,10,21)          171.9962         calculate D2E/DX2 analytically  !
 ! D48   D(16,4,10,21)         -69.2625         calculate D2E/DX2 analytically  !
 ! D49   D(4,5,6,12)            61.265          calculate D2E/DX2 analytically  !
 ! D50   D(4,5,6,23)          -175.9431         calculate D2E/DX2 analytically  !
 ! D51   D(4,5,6,24)           -57.3814         calculate D2E/DX2 analytically  !
 ! D52   D(11,5,6,12)          -58.9693         calculate D2E/DX2 analytically  !
 ! D53   D(11,5,6,23)           63.8227         calculate D2E/DX2 analytically  !
 ! D54   D(11,5,6,24)         -177.6157         calculate D2E/DX2 analytically  !
 ! D55   D(17,5,6,12)         -177.8761         calculate D2E/DX2 analytically  !
 ! D56   D(17,5,6,23)          -55.0841         calculate D2E/DX2 analytically  !
 ! D57   D(17,5,6,24)           63.4775         calculate D2E/DX2 analytically  !
 ! D58   D(4,5,11,1)            61.7785         calculate D2E/DX2 analytically  !
 ! D59   D(6,5,11,1)          -175.9582         calculate D2E/DX2 analytically  !
 ! D60   D(17,5,11,1)          -58.0454         calculate D2E/DX2 analytically  !
 ! D61   D(5,6,12,22)           56.1621         calculate D2E/DX2 analytically  !
 ! D62   D(23,6,12,22)         -65.3312         calculate D2E/DX2 analytically  !
 ! D63   D(24,6,12,22)         175.9607         calculate D2E/DX2 analytically  !
 ! D64   D(15,8,13,1)           69.8278         calculate D2E/DX2 analytically  !
 ! D65   D(19,8,13,1)          -94.5416         calculate D2E/DX2 analytically  !
 ! D66   D(13,8,15,3)          -77.0188         calculate D2E/DX2 analytically  !
 ! D67   D(19,8,15,3)          -27.1054         calculate D2E/DX2 analytically  !
 --------------------------------------------------------------------------------
 Trust Radius=3.00D-01 FncErr=1.00D-07 GrdErr=1.00D-06
 Number of steps in this run=    144 maximum allowed number of steps=    144.
 Search for a saddle point of order  1.
 GradGradGradGradGradGradGradGradGradGradGradGradGradGradGradGradGradGrad

                          Input orientation:                          
 ---------------------------------------------------------------------
 Center     Atomic      Atomic             Coordinates (Angstroms)
 Number     Number       Type             X           Y           Z
 ---------------------------------------------------------------------
      1          6           0        0.010523    0.203218    0.079449
      2          6           0       -0.468967    1.654888   -0.067596
      3          6           0        0.061252    2.243155   -1.281384
      4          6           0        1.586995    2.126727   -1.342485
      5          6           0        1.982572    0.663967   -1.146933
      6          6           0        3.484800    0.471088   -1.034360
      7          8           0       -0.430294   -0.293701    1.294478
      8          8           0       -1.932853    0.462759   -1.533582
      9          8           0       -0.249470    3.617001   -1.381678
     10          8           0        2.105896    2.556187   -2.581743
     11          8           0        1.422464    0.176720    0.063451
     12          8           0        4.020279    1.159608    0.076877
     13          1           0       -0.372307   -0.398041   -0.761948
     14          1           0       -0.855820    2.449209    0.587919
     15          1           0       -0.547494    1.474546   -1.944478
     16          1           0        2.011328    2.718104   -0.517967
     17          1           0        1.612176    0.077774   -2.003391
     18          1           0       -0.333950   -1.251918    1.305490
     19          1           0       -2.542822   -0.057581   -0.999171
     20          1           0       -1.208616    3.710806   -1.375315
     21          1           0        1.749020    3.434183   -2.759191
     22          1           0        3.550788    0.854187    0.861431
     23          1           0        3.697271   -0.603546   -0.969555
     24          1           0        3.967501    0.871544   -1.928312
 ---------------------------------------------------------------------
                    Distance matrix (angstroms):
                    1          2          3          4          5
     1  C    0.000000
     2  C    1.535864   0.000000
     3  C    2.452709   1.449300   0.000000
     4  C    2.864794   2.464742   1.531398   0.000000
     5  C    2.367547   2.856035   2.490659   1.527871   0.000000
     6  C    3.658268   4.238902   3.862891   2.537271   1.518738
     7  O    1.384754   2.377759   3.648605   4.108710   3.563641
     8  O    2.538886   2.390240   2.685121   3.898030   3.939611
     9  O    3.722419   2.371683   1.412112   2.365387   3.709114
    10  O    4.124196   3.709878   2.443254   1.410480   2.377895
    11  O    1.412280   2.404093   2.816316   2.409617   1.419916
    12  O    4.122236   4.518795   4.323522   2.978385   2.428090
    13  H    1.102733   2.169328   2.726482   3.248129   2.611806
    14  H    2.460400   1.100138   2.092313   3.130144   3.775351
    15  H    2.454371   1.887161   1.183650   2.311661   2.773869
    16  H    3.268758   2.735896   2.147365   1.099825   2.148465
    17  H    2.630447   3.250499   2.759626   2.153053   1.101969
    18  H    1.933716   3.217626   4.366193   4.702876   3.879596
    19  H    2.784063   2.846270   3.486292   4.684491   4.584938
    20  H    3.988209   2.546372   1.943036   3.213382   4.418039
    21  H    4.638899   3.915360   2.539886   1.934619   3.213724
    22  H    3.683576   4.202695   4.324089   3.214512   2.555193
    23  H    3.917064   4.824064   4.628345   3.470840   2.139683
    24  H    4.487253   4.874232   4.190300   2.754176   2.143265
                    6          7          8          9         10
     6  C    0.000000
     7  O    4.619129   0.000000
     8  O    5.440612   3.290568   0.000000
     9  O    4.895117   4.742162   3.578561   0.000000
    10  O    2.939967   5.438677   4.668252   2.848374   0.000000
    11  O    2.354798   2.273639   3.726994   4.088924   3.622981
    12  O    1.412673   4.837588   6.206365   5.137793   3.561398
    13  H    3.963189   2.059888   1.942087   4.064446   4.263872
    14  H    5.038426   2.864237   3.099476   2.368694   4.339351
    15  H    4.253779   3.692055   1.764021   2.235102   2.935393
    16  H    2.736213   4.279888   4.655601   2.581709   2.072277
    17  H    2.144863   3.896873   3.596688   4.047022   2.592447
    18  H    4.798593   0.963111   3.681975   5.561869   5.963648
    19  H    6.050864   3.127196   0.963540   4.348371   5.562993
    20  H    5.713158   4.875414   3.331573   0.963743   3.711416
    21  H    3.842903   5.922733   4.887501   2.434117   0.964223
    22  H    1.935237   4.165836   5.996635   5.206404   4.103653
    23  H    1.097352   4.717907   5.757902   5.793067   3.887871
    24  H    1.092024   5.575372   5.927655   5.061540   2.594334
                   11         12         13         14         15
    11  O    0.000000
    12  O    2.777569   0.000000
    13  H    2.057386   4.735474   0.000000
    14  H    3.260346   5.069574   3.187909   0.000000
    15  H    3.097881   5.004959   2.221632   2.730947   0.000000
    16  H    2.672722   2.611251   3.930853   3.084774   3.182600
    17  H    2.077888   3.361077   2.388672   4.292971   2.572667
    18  H    2.582374   5.126818   2.237158   3.805995   4.247529
    19  H    4.111880   6.761192   2.209824   3.413038   2.687443
    20  H    4.634910   5.996567   4.237719   2.360165   2.400394
    21  H    4.322616   4.286676   4.814037   4.354137   3.126965
    22  H    2.371813   0.963965   4.426523   4.694369   5.005386
    23  H    2.617377   2.075588   4.080049   5.698744   4.825657
    24  H    3.305618   2.026462   4.669709   5.664351   4.555112
                   16         17         18         19         20
    16  H    0.000000
    17  H    3.055675   0.000000
    18  H    4.958467   4.062534   0.000000
    19  H    5.355022   4.276773   3.408375   0.000000
    20  H    3.476858   4.642227   5.707923   4.015262   0.000000
    21  H    2.367416   3.443173   6.543695   5.806031   3.277079
    22  H    2.783319   3.545171   4.441177   6.436244   5.984583
    23  H    3.752292   2.425002   4.674073   6.264002   6.545686
    24  H    3.037346   2.486617   5.785244   6.641602   5.929537
                   21         22         23         24
    21  H    0.000000
    22  H    4.797046   0.000000
    23  H    4.827187   2.344985   0.000000
    24  H    3.489862   2.820748   1.779924   0.000000
 Symmetry turned off by external request.
 Stoichiometry    C6H12O6
 Framework group  C1[X(C6H12O6)]
 Deg. of freedom    66
 Full point group                 C1      NOp   1
 Rotational constants (GHZ):      1.0986202      0.7868054      0.5450985
 Standard basis: 6-31+G(2df,p) (6D, 7F)
 Integral buffers will be    131072 words long.
 Raffenetti 2 integral format.
 Two-electron integral symmetry is turned off.
   444 basis functions,   660 primitive gaussians,   480 cartesian basis functions
    48 alpha electrons       48 beta electrons
       nuclear repulsion energy       819.6991015420 Hartrees.
 NAtoms=   24 NActive=   24 NUniq=   24 SFac= 1.00D+00 NAtFMM=   50 NAOKFM=F Big=F
 ------------------------------------------------------------------------------
 Polarizable Continuum Model (PCM)
 =================================
 Model                : PCM.
 Atomic radii         : UFF (Universal Force Field).
 Polarization charges : Total charges.
 Charge compensation  : None.
 Solution method      : Matrix inversion.
 Cavity type          : Scaled VdW (van der Waals Surface) (Alpha=1.100).
 Cavity algorithm     : GePol (No added spheres)
                        Default sphere list used, NSphG=   24.
                        Lebedev-Laikov grids with approx.  5.0 points / Ang**2.
                        Smoothing algorithm: Karplus/York (Gamma=1.0000).
                        Polarization charges: spherical gaussians, with
                                              point-specific exponents (IZeta= 3).
                        Self-potential: point-specific (ISelfS= 7).
                        Self-field    : sphere-specific E.n sum rule (ISelfD= 2).
 1st derivatives      : Analytical E(r).r(x)/FMM algorithm (CHGder, D1EAlg=3).
                        Cavity 1st derivative terms included.
 2nd derivatives      : Analytical E(r).r(xy)/FMM algorithm (CHGder, D2EAlg=3).
                        Cavity 2nd derivative terms included.
 Solvent              : Ethanol, Eps=  24.852000 Eps(inf)=   1.852593
 ------------------------------------------------------------------------------
 One-electron integrals computed using PRISM.
 NBasis=   444 RedAO= T  NBF=   444
 NBsUse=   444 1.00D-06 NBFU=   444
 Harris functional with IExCor= 1009 diagonalized for initial guess.
 ExpMin= 4.38D-02 ExpMax= 5.48D+03 ExpMxC= 8.25D+02 IAcc=2 IRadAn=         0 AccDes= 0.00D+00
 HarFok:  IExCor= 1009 AccDes= 0.00D+00 IRadAn=         0 IDoV= 1
 ScaDFX=  1.000000  1.000000  1.000000  1.000000
 FoFCou: FMM=F IPFlag=           0 FMFlag=      100000 FMFlg1=           0
         NFxFlg=           0 DoJE=T BraDBF=F KetDBF=T FulRan=T
         Omega=  0.000000  0.000000  1.000000  0.000000  0.000000 ICntrl=     500 IOpCl=  0
         NMat0=    1 NMatS0=    1 NMatT0=    0 NMatD0=    1 NMtDS0=    0 NMtDT0=    0
         I1Cent=           4 NGrid=           0.
 Symmetry not used in FoFCou.
 Requested convergence on RMS density matrix=1.00D-08 within  64 cycles.
 Requested convergence on MAX density matrix=1.00D-06.
 Requested convergence on             energy=1.00D-06.
 No special actions if energy rises.
 Error on total polarization charges =  0.01388
 SCF Done:  E(RM062X) =  -686.845540709     A.U. after   17 cycles
             Convg  =    0.5047D-08             -V/T =  2.0059
 QCSCF skips out because SCF is already converged.
 Range of M.O.s used for correlation:     1   444
 NBasis=   444 NAE=    48 NBE=    48 NFC=     0 NFV=     0
 NROrb=    444 NOA=    48 NOB=    48 NVA=   396 NVB=   396

 **** Warning!!: The largest alpha MO coefficient is  0.60364170D+02

 Symmetrizing basis deriv contribution to polar:
 IMax=3 JMax=2 DiffMx= 0.00D+00
 G2DrvN: will do    25 centers at a time, making    1 passes doing MaxLOS=3.
 Calling FoFCou, ICntrl=  3107 FMM=F I1Cent=   0 AccDes= 0.00D+00.
 FoFDir/FoFCou used for L=0 through L=3.
 G2PCM: DoFxE=T DoFxN=T DoGrad=T DoPD/DQ/DG=FFF NFrqRd=   0 IEInf=0 DoCFld=F IF1Alg=4.
 End of G2Drv Frequency-dependent properties file   721 does not exist.
 End of G2Drv Frequency-dependent properties file   722 does not exist.
          IDoAtm=111111111111111111111111
 NEqPCM:  Using equilibrium solvation (IEInf=0, Eps=  24.8520, EpsInf=   1.8526)
          Differentiating once with respect to nuclear coordinates.
          There are    75 degrees of freedom in the 1st order CPHF.  IDoFFX=5.
     69 vectors produced by pass  0 Test12= 2.53D-10 1.33D-07 XBig12= 1.14D-01 1.31D-01.
 AX will form    69 AO Fock derivatives at one time.
     69 vectors produced by pass  1 Test12= 2.53D-10 1.33D-07 XBig12= 1.21D-02 2.91D-02.
     69 vectors produced by pass  2 Test12= 2.53D-10 1.33D-07 XBig12= 3.74D-04 3.36D-03.
     69 vectors produced by pass  3 Test12= 2.53D-10 1.33D-07 XBig12= 3.20D-06 2.15D-04.
     69 vectors produced by pass  4 Test12= 2.53D-10 1.33D-07 XBig12= 2.11D-08 1.64D-05.
     29 vectors produced by pass  5 Test12= 2.53D-10 1.33D-07 XBig12= 1.18D-10 8.77D-07.
 Inverted reduced A of dimension   374 with in-core refinement.
 End of Minotr Frequency-dependent properties file   721 does not exist.
 End of Minotr Frequency-dependent properties file   722 does not exist.

 **********************************************************************

            Population analysis using the SCF density.

 **********************************************************************

 Alpha  occ. eigenvalues --  -19.67575 -19.66912 -19.66666 -19.65957 -19.64636
 Alpha  occ. eigenvalues --  -19.59150 -10.68039 -10.67830 -10.62727 -10.62626
 Alpha  occ. eigenvalues --  -10.61782 -10.60161  -1.23087  -1.19127  -1.17082
 Alpha  occ. eigenvalues --   -1.16286  -1.15056  -1.03001  -0.93681  -0.89405
 Alpha  occ. eigenvalues --   -0.80265  -0.76398  -0.72432  -0.68907  -0.65870
 Alpha  occ. eigenvalues --   -0.62940  -0.61841  -0.59922  -0.58499  -0.57720
 Alpha  occ. eigenvalues --   -0.56158  -0.52625  -0.52344  -0.50463  -0.49923
 Alpha  occ. eigenvalues --   -0.49056  -0.46495  -0.45485  -0.44511  -0.43489
 Alpha  occ. eigenvalues --   -0.41676  -0.40465  -0.38082  -0.37751  -0.37135
 Alpha  occ. eigenvalues --   -0.35718  -0.32745  -0.32305
 Alpha virt. eigenvalues --   -0.10036   0.01525   0.01852   0.02418   0.02774
 Alpha virt. eigenvalues --    0.04102   0.05028   0.05718   0.06261   0.06876
 Alpha virt. eigenvalues --    0.08088   0.08370   0.09815   0.10427   0.10876
 Alpha virt. eigenvalues --    0.11901   0.12420   0.12811   0.13505   0.14949
 Alpha virt. eigenvalues --    0.15534   0.15998   0.16864   0.17302   0.17838
 Alpha virt. eigenvalues --    0.19324   0.19931   0.20388   0.20655   0.20926
 Alpha virt. eigenvalues --    0.22159   0.22607   0.23127   0.23306   0.24486
 Alpha virt. eigenvalues --    0.24866   0.25672   0.26142   0.26808   0.27501
 Alpha virt. eigenvalues --    0.27803   0.28129   0.28618   0.29134   0.29543
 Alpha virt. eigenvalues --    0.30951   0.31319   0.31593   0.31903   0.32364
 Alpha virt. eigenvalues --    0.32819   0.33567   0.34216   0.34501   0.35339
 Alpha virt. eigenvalues --    0.35810   0.36256   0.36748   0.37243   0.37895
 Alpha virt. eigenvalues --    0.38720   0.39944   0.40608   0.42221   0.42600
 Alpha virt. eigenvalues --    0.43212   0.44043   0.44777   0.44931   0.47237
 Alpha virt. eigenvalues --    0.49013   0.50072   0.60623   0.61008   0.61454
 Alpha virt. eigenvalues --    0.61991   0.63198   0.65562   0.67384   0.68759
 Alpha virt. eigenvalues --    0.70124   0.71411   0.71632   0.73623   0.75841
 Alpha virt. eigenvalues --    0.75944   0.77871   0.79282   0.81943   0.82748
 Alpha virt. eigenvalues --    0.83998   0.85206   0.88234   0.89969   0.91143
 Alpha virt. eigenvalues --    0.93085   0.93982   0.94593   0.95065   0.96472
 Alpha virt. eigenvalues --    0.96697   0.97356   0.97766   0.99556   1.00515
 Alpha virt. eigenvalues --    1.01016   1.02187   1.02718   1.04595   1.05002
 Alpha virt. eigenvalues --    1.05190   1.06551   1.08502   1.08917   1.09354
 Alpha virt. eigenvalues --    1.10844   1.12022   1.14586   1.15651   1.16956
 Alpha virt. eigenvalues --    1.18229   1.19255   1.19871   1.20923   1.21927
 Alpha virt. eigenvalues --    1.24042   1.25082   1.25993   1.26295   1.27209
 Alpha virt. eigenvalues --    1.27554   1.28818   1.29465   1.30822   1.31464
 Alpha virt. eigenvalues --    1.31899   1.34175   1.35458   1.35736   1.37703
 Alpha virt. eigenvalues --    1.39416   1.40009   1.40647   1.42462   1.44016
 Alpha virt. eigenvalues --    1.44915   1.46463   1.48197   1.48297   1.51108
 Alpha virt. eigenvalues --    1.51584   1.53323   1.55389   1.56498   1.57887
 Alpha virt. eigenvalues --    1.58894   1.61176   1.62221   1.64564   1.65366
 Alpha virt. eigenvalues --    1.67976   1.69658   1.70413   1.71363   1.72604
 Alpha virt. eigenvalues --    1.75562   1.76753   1.79323   1.81745   1.82524
 Alpha virt. eigenvalues --    1.84478   1.88603   1.90890   1.91454   1.92323
 Alpha virt. eigenvalues --    1.95665   1.96408   1.98470   2.00313   2.02232
 Alpha virt. eigenvalues --    2.05318   2.06765   2.09132   2.11205   2.15700
 Alpha virt. eigenvalues --    2.17592   2.19979   2.25477   2.26216   2.30096
 Alpha virt. eigenvalues --    2.32240   2.36409   2.38070   2.43585   2.47815
 Alpha virt. eigenvalues --    2.49574   2.52452   2.56591   2.56914   2.57236
 Alpha virt. eigenvalues --    2.58842   2.60381   2.60989   2.61235   2.62938
 Alpha virt. eigenvalues --    2.63842   2.67095   2.68789   2.70548   2.73933
 Alpha virt. eigenvalues --    2.75046   2.77129   2.79872   2.81994   2.83857
 Alpha virt. eigenvalues --    2.86344   2.89369   2.90984   2.92179   2.94495
 Alpha virt. eigenvalues --    2.95857   2.98425   3.00310   3.02865   3.03541
 Alpha virt. eigenvalues --    3.05016   3.07883   3.09177   3.09903   3.12855
 Alpha virt. eigenvalues --    3.13872   3.15846   3.16961   3.20178   3.21306
 Alpha virt. eigenvalues --    3.22920   3.25472   3.27518   3.30695   3.32619
 Alpha virt. eigenvalues --    3.34895   3.35238   3.37967   3.41835   3.42973
 Alpha virt. eigenvalues --    3.45698   3.49020   3.52957   3.56412   3.57416
 Alpha virt. eigenvalues --    3.58916   3.61415   3.63815   3.65600   3.66839
 Alpha virt. eigenvalues --    3.70257   3.74760   3.78874   3.83369   3.85734
 Alpha virt. eigenvalues --    3.87072   3.89169   3.95285   4.00658   4.04334
 Alpha virt. eigenvalues --    4.09046   4.11073   4.14201   4.19581   4.22563
 Alpha virt. eigenvalues --    4.23754   4.25379   4.26329   4.27887   4.29289
 Alpha virt. eigenvalues --    4.30338   4.32549   4.33748   4.35604   4.37482
 Alpha virt. eigenvalues --    4.39155   4.41388   4.43103   4.43270   4.43855
 Alpha virt. eigenvalues --    4.45569   4.47221   4.47612   4.49501   4.50109
 Alpha virt. eigenvalues --    4.53623   4.53983   4.55217   4.56103   4.57342
 Alpha virt. eigenvalues --    4.57733   4.60048   4.61185   4.62186   4.63552
 Alpha virt. eigenvalues --    4.65052   4.65328   4.66332   4.67482   4.70593
 Alpha virt. eigenvalues --    4.71654   4.71916   4.74269   4.75734   4.75951
 Alpha virt. eigenvalues --    4.77849   4.80055   4.82454   4.83207   4.85775
 Alpha virt. eigenvalues --    4.86619   4.87267   4.89918   4.92501   4.93257
 Alpha virt. eigenvalues --    4.97573   4.98203   5.00588   5.03187   5.05284
 Alpha virt. eigenvalues --    5.08198   5.09046   5.11285   5.14153   5.16830
 Alpha virt. eigenvalues --    5.20214   5.23853   5.25351   5.25786   5.26526
 Alpha virt. eigenvalues --    5.28066   5.31316   5.34382   5.37026   5.39011
 Alpha virt. eigenvalues --    5.40450   5.41716   5.43914   5.46195   5.47354
 Alpha virt. eigenvalues --    5.48787   5.50241   5.50692   5.51541   5.52095
 Alpha virt. eigenvalues --    5.54698   5.58051   5.58485   5.65151   5.66744
 Alpha virt. eigenvalues --    5.70089   5.77319   5.78665   5.83157   5.85121
 Alpha virt. eigenvalues --    5.88450   5.92029   5.92926   5.95154   5.97199
 Alpha virt. eigenvalues --    5.98485   6.01378   6.04872   6.05733   6.06924
 Alpha virt. eigenvalues --    6.10754   6.12354   6.15842   6.17245   6.28103
 Alpha virt. eigenvalues --    6.40310   6.62207   6.97742   7.10998   7.16863
 Alpha virt. eigenvalues --    7.22213   7.23422   7.42840   7.75425  11.79235
 Alpha virt. eigenvalues --   12.00796  12.35818  12.64476  12.85497  13.15215
 Alpha virt. eigenvalues --   13.22029  13.40886  13.47635  13.54504  13.71379
 Alpha virt. eigenvalues --   13.97804
          Condensed to atoms (all electrons):
              1          2          3          4          5          6
     1  C    5.628028  -0.121998   0.099247   0.001903  -0.375949  -0.009001
     2  C   -0.121998   6.038260  -0.523872   0.316948  -0.029460   0.033833
     3  C    0.099247  -0.523872   6.443960  -0.447874   0.297924  -0.180591
     4  C    0.001903   0.316948  -0.447874   5.863146  -0.334744   0.076424
     5  C   -0.375949  -0.029460   0.297924  -0.334744   6.266648  -0.187896
     6  C   -0.009001   0.033833  -0.180591   0.076424  -0.187896   5.590796
     7  O    0.340406  -0.098757  -0.016706   0.016488  -0.025096   0.003959
     8  O   -0.175828   0.227281  -0.177803   0.066023  -0.025266   0.002133
     9  O    0.011032  -0.073968   0.254294  -0.047385  -0.000614   0.001051
    10  O    0.016866  -0.004519  -0.002929   0.253281  -0.037580  -0.066731
    11  O    0.158966  -0.052016  -0.063526   0.009013   0.166137  -0.027819
    12  O   -0.009179  -0.001709   0.012175  -0.001958   0.021990   0.167742
    13  H    0.459978  -0.087031   0.027882  -0.023525   0.019248   0.008831
    14  H    0.005249   0.305228   0.013709  -0.008584   0.015134   0.001046
    15  H    0.012781  -0.142695   0.520473  -0.097725   0.036361   0.002382
    16  H    0.003313  -0.019659   0.011716   0.359736  -0.039593  -0.000219
    17  H    0.033454  -0.035590  -0.002000  -0.019266   0.315582   0.017772
    18  H   -0.049725   0.023713   0.001591  -0.002521   0.005811   0.000857
    19  H    0.033315  -0.032215   0.027892  -0.005085  -0.002257  -0.000602
    20  H    0.000003  -0.010229  -0.016603   0.014182  -0.001996   0.000066
    21  H   -0.003223   0.009484  -0.039629  -0.018465   0.023530   0.004604
    22  H    0.006251  -0.001951  -0.002189  -0.011685  -0.037162   0.018293
    23  H   -0.008417   0.000515   0.002109   0.010980  -0.040210   0.407562
    24  H    0.002697   0.000536  -0.006381  -0.013131  -0.092972   0.487416
              7          8          9         10         11         12
     1  C    0.340406  -0.175828   0.011032   0.016866   0.158966  -0.009179
     2  C   -0.098757   0.227281  -0.073968  -0.004519  -0.052016  -0.001709
     3  C   -0.016706  -0.177803   0.254294  -0.002929  -0.063526   0.012175
     4  C    0.016488   0.066023  -0.047385   0.253281   0.009013  -0.001958
     5  C   -0.025096  -0.025266  -0.000614  -0.037580   0.166137   0.021990
     6  C    0.003959   0.002133   0.001051  -0.066731  -0.027819   0.167742
     7  O    8.022033   0.005317   0.000579  -0.000203  -0.012541   0.000454
     8  O    0.005317   8.823789  -0.000985  -0.000406   0.022127   0.000030
     9  O    0.000579  -0.000985   8.152076  -0.014195  -0.001458   0.000318
    10  O   -0.000203  -0.000406  -0.014195   8.116767   0.004336  -0.003215
    11  O   -0.012541   0.022127  -0.001458   0.004336   8.082674  -0.012241
    12  O    0.000454   0.000030   0.000318  -0.003215  -0.012241   8.090557
    13  H   -0.016834  -0.048257   0.000169  -0.000092  -0.054556  -0.000261
    14  H    0.001146  -0.006835   0.000912  -0.000302   0.000449  -0.000055
    15  H    0.000691  -0.069593  -0.021658  -0.001851   0.000123  -0.000095
    16  H   -0.000145  -0.000716  -0.004241  -0.028639   0.008267  -0.001020
    17  H    0.000537  -0.001207   0.000001  -0.000118  -0.014092   0.002897
    18  H    0.295497  -0.000120   0.000016  -0.000003  -0.000234   0.000004
    19  H   -0.001771   0.246522  -0.000290   0.000009   0.000074   0.000000
    20  H   -0.000050   0.001669   0.283763   0.001027   0.000066  -0.000006
    21  H    0.000006   0.000024   0.011742   0.282119  -0.000473   0.000084
    22  H    0.000103  -0.000001  -0.000003   0.000200   0.011002   0.289847
    23  H    0.000256   0.000009   0.000003  -0.000668  -0.003958  -0.031413
    24  H   -0.000004   0.000000  -0.000021   0.002369   0.004842  -0.041036
             13         14         15         16         17         18
     1  C    0.459978   0.005249   0.012781   0.003313   0.033454  -0.049725
     2  C   -0.087031   0.305228  -0.142695  -0.019659  -0.035590   0.023713
     3  C    0.027882   0.013709   0.520473   0.011716  -0.002000   0.001591
     4  C   -0.023525  -0.008584  -0.097725   0.359736  -0.019266  -0.002521
     5  C    0.019248   0.015134   0.036361  -0.039593   0.315582   0.005811
     6  C    0.008831   0.001046   0.002382  -0.000219   0.017772   0.000857
     7  O   -0.016834   0.001146   0.000691  -0.000145   0.000537   0.295497
     8  O   -0.048257  -0.006835  -0.069593  -0.000716  -0.001207  -0.000120
     9  O    0.000169   0.000912  -0.021658  -0.004241   0.000001   0.000016
    10  O   -0.000092  -0.000302  -0.001851  -0.028639  -0.000118  -0.000003
    11  O   -0.054556   0.000449   0.000123   0.008267  -0.014092  -0.000234
    12  O   -0.000261  -0.000055  -0.000095  -0.001020   0.002897   0.000004
    13  H    0.490895   0.001512   0.000835  -0.000046   0.002486  -0.005950
    14  H    0.001512   0.397247   0.004464  -0.000251  -0.000028  -0.000025
    15  H    0.000835   0.004464   0.459058   0.002587   0.000811   0.000035
    16  H   -0.000046  -0.000251   0.002587   0.519479   0.003587   0.000001
    17  H    0.002486  -0.000028   0.000811   0.003587   0.521153  -0.000029
    18  H   -0.005950  -0.000025   0.000035   0.000001  -0.000029   0.333238
    19  H   -0.000718   0.000084   0.002000   0.000002   0.000004  -0.000001
    20  H    0.000000  -0.000069  -0.003127  -0.000074  -0.000003   0.000000
    21  H   -0.000002  -0.000005  -0.000171  -0.002646  -0.000237   0.000000
    22  H    0.000003   0.000000   0.000000  -0.000103   0.000114   0.000000
    23  H   -0.000021   0.000000  -0.000006  -0.000099  -0.002262  -0.000003
    24  H   -0.000004   0.000000  -0.000002   0.000141   0.000066   0.000000
             19         20         21         22         23         24
     1  C    0.033315   0.000003  -0.003223   0.006251  -0.008417   0.002697
     2  C   -0.032215  -0.010229   0.009484  -0.001951   0.000515   0.000536
     3  C    0.027892  -0.016603  -0.039629  -0.002189   0.002109  -0.006381
     4  C   -0.005085   0.014182  -0.018465  -0.011685   0.010980  -0.013131
     5  C   -0.002257  -0.001996   0.023530  -0.037162  -0.040210  -0.092972
     6  C   -0.000602   0.000066   0.004604   0.018293   0.407562   0.487416
     7  O   -0.001771  -0.000050   0.000006   0.000103   0.000256  -0.000004
     8  O    0.246522   0.001669   0.000024  -0.000001   0.000009   0.000000
     9  O   -0.000290   0.283763   0.011742  -0.000003   0.000003  -0.000021
    10  O    0.000009   0.001027   0.282119   0.000200  -0.000668   0.002369
    11  O    0.000074   0.000066  -0.000473   0.011002  -0.003958   0.004842
    12  O    0.000000  -0.000006   0.000084   0.289847  -0.031413  -0.041036
    13  H   -0.000718   0.000000  -0.000002   0.000003  -0.000021  -0.000004
    14  H    0.000084  -0.000069  -0.000005   0.000000   0.000000   0.000000
    15  H    0.002000  -0.003127  -0.000171   0.000000  -0.000006  -0.000002
    16  H    0.000002  -0.000074  -0.002646  -0.000103  -0.000099   0.000141
    17  H    0.000004  -0.000003  -0.000237   0.000114  -0.002262   0.000066
    18  H   -0.000001   0.000000   0.000000   0.000000  -0.000003   0.000000
    19  H    0.386041  -0.000023   0.000000   0.000000   0.000000   0.000000
    20  H   -0.000023   0.334178  -0.000260   0.000000   0.000000   0.000000
    21  H    0.000000  -0.000260   0.338290   0.000000   0.000002   0.000112
    22  H    0.000000   0.000000   0.000000   0.344993  -0.004445   0.004470
    23  H    0.000000   0.000000   0.000002  -0.004445   0.526574  -0.029717
    24  H    0.000000   0.000000   0.000112   0.004470  -0.029717   0.490493
 Mulliken atomic charges:
              1
     1  C   -0.060167
     2  C    0.279871
     3  C   -0.232869
     4  C    0.043827
     5  C    0.062431
     6  C   -0.351908
     7  O   -0.515365
     8  O   -0.887906
     9  O   -0.551137
    10  O   -0.515521
    11  O   -0.225162
    12  O   -0.483909
    13  H    0.225457
    14  H    0.269972
    15  H    0.294322
    16  H    0.188620
    17  H    0.176370
    18  H    0.397848
    19  H    0.347020
    20  H    0.397488
    21  H    0.395116
    22  H    0.382265
    23  H    0.173209
    24  H    0.190129
 Sum of Mulliken atomic charges =   0.00000
 Mulliken charges with hydrogens summed into heavy atoms:
              1
     1  C    0.165290
     2  C    0.549843
     3  C    0.061453
     4  C    0.232447
     5  C    0.238801
     6  C    0.011429
     7  O   -0.117517
     8  O   -0.540886
     9  O   -0.153649
    10  O   -0.120405
    11  O   -0.225162
    12  O   -0.101644
 Sum of Mulliken charges with hydrogens summed into heavy atoms =   0.00000
 APT atomic charges:
              1
     1  C   -0.237977
     2  C    0.160649
     3  C   -0.341461
     4  C   -0.045369
     5  C   -0.105522
     6  C   -0.900365
     7  O   -0.784539
     8  O   -1.037619
     9  O   -0.944869
    10  O   -1.173191
    11  O   -0.398106
    12  O   -0.343275
    13  H    0.389387
    14  H    0.706207
    15  H    0.218783
    16  H    0.468701
    17  H    0.339890
    18  H    0.615632
    19  H    0.505647
    20  H    0.691559
    21  H    0.964947
    22  H    0.120113
    23  H    0.377352
    24  H    0.753425
 Sum of APT charges=   0.00000
 APT Atomic charges with hydrogens summed into heavy atoms:
              1
     1  C    0.151411
     2  C    0.866855
     3  C   -0.122678
     4  C    0.423332
     5  C    0.234368
     6  C    0.230412
     7  O   -0.168907
     8  O   -0.531972
     9  O   -0.253310
    10  O   -0.208244
    11  O   -0.398106
    12  O   -0.223162
    13  H    0.000000
    14  H    0.000000
    15  H    0.000000
    16  H    0.000000
    17  H    0.000000
    18  H    0.000000
    19  H    0.000000
    20  H    0.000000
    21  H    0.000000
    22  H    0.000000
    23  H    0.000000
    24  H    0.000000
 Sum of APT charges=   0.00000
 Electronic spatial extent (au):  <R**2>=           3177.9843
 Charge=              0.0000 electrons
 Dipole moment (field-independent basis, Debye):
    X=             -0.6790    Y=             -0.2837    Z=              2.5767  Tot=              2.6797
 Quadrupole moment (field-independent basis, Debye-Ang):
   XX=            -87.9697   YY=            -60.9210   ZZ=            -80.1408
   XY=             -8.5624   XZ=             -5.1153   YZ=              0.1918
 Traceless Quadrupole moment (field-independent basis, Debye-Ang):
   XX=            -11.6259   YY=             15.4228   ZZ=             -3.7969
   XY=             -8.5624   XZ=             -5.1153   YZ=              0.1918
 Octapole moment (field-independent basis, Debye-Ang**2):
  XXX=           -262.3103  YYY=           -243.1353  ZZZ=            185.8405  XYY=            -94.3410
  XXY=           -119.2667  XXZ=             69.4649  XZZ=            -51.2077  YZZ=            -90.3842
  YYZ=             50.6288  XYZ=              3.5263
 Hexadecapole moment (field-independent basis, Debye-Ang**3):
 XXXX=          -2143.6078 YYYY=          -1237.7065 ZZZZ=           -845.9470 XXXY=           -391.4809
 XXXZ=            150.9464 YYYX=           -307.9939 YYYZ=            285.0924 ZZZX=            180.1285
 ZZZY=            349.8620 XXYY=           -529.2365 XXZZ=           -451.2769 YYZZ=           -304.4857
 XXYZ=            134.9005 YYXZ=             62.6121 ZZXY=            -82.0645
 N-N= 8.196991015420D+02 E-N=-3.250438405989D+03  KE= 6.827865343883D+02
  Exact polarizability:   0.000   0.000   0.000   0.000   0.000   0.000
 Approx polarizability: 134.529  15.444 122.997   9.032   7.777 123.960
 D2PCM: PCM CHGder 2nd derivatives, FixD1E=F FixD2E=F DoIter=F DoCFld=F I1PDM=0
 Calling FoFJK, ICntrl=    100147 FMM=F ISym2X=0 I1Cent= 0 IOpClX= 0 NMat=1 NMatS=1 NMatT=0.
 -------------------------------------------------------------------
 Center     Atomic                   Forces (Hartrees/Bohr)
 Number     Number              X              Y              Z
 -------------------------------------------------------------------
      1        6          -0.003207776   -0.009690003    0.020987160
      2        6          -0.001470409   -0.025387643   -0.032978841
      3        6          -0.014612795   -0.008153679   -0.013704321
      4        6           0.007217508   -0.006933078   -0.005244844
      5        6           0.000890471   -0.002621945   -0.001827402
      6        6           0.001094678    0.000326189    0.001035421
      7        8           0.000898882    0.002907656    0.000700670
      8        8          -0.006097798    0.024827004    0.026270127
      9        8          -0.002309436   -0.008061277   -0.007359707
     10        8          -0.006405507   -0.001515926    0.005254062
     11        8           0.002923510    0.010523280    0.004282313
     12        8          -0.000600952    0.000204893   -0.000398325
     13        1           0.005760973    0.009329749    0.005260218
     14        1          -0.009885776   -0.022958766    0.011600236
     15        1           0.029619846    0.035450399   -0.004525026
     16        1          -0.000940442    0.000679906   -0.000967611
     17        1          -0.000286215    0.000503207    0.000479425
     18        1           0.000636033   -0.000092778   -0.001265759
     19        1          -0.003123475   -0.003024531   -0.003490777
     20        1          -0.000488215    0.002789192   -0.003546170
     21        1           0.000569488    0.000820184   -0.000613832
     22        1           0.000393073   -0.000042491    0.000295938
     23        1          -0.000329391    0.000199282   -0.000177919
     24        1          -0.000246274   -0.000078823   -0.000065038
 -------------------------------------------------------------------
 Cartesian Forces:  Max     0.035450399 RMS     0.010338117

 GradGradGradGradGradGradGradGradGradGradGradGradGradGradGradGradGradGrad
 Berny optimization.
 Internal  Forces:  Max     0.051522535 RMS     0.009043728
 Search for a saddle point.
 Step number   1 out of a maximum of  144
 All quantities printed in internal units (Hartrees-Bohrs-Radians)
 Swaping is turned off.
 Second derivative matrix not updated -- analytic derivatives used.
 ITU=  0
     Eigenvalues ---   -0.13821  -0.00826   0.00091   0.00279   0.00334
     Eigenvalues ---    0.00351   0.00373   0.00489   0.00703   0.00719
     Eigenvalues ---    0.00959   0.01296   0.01554   0.02062   0.02523
     Eigenvalues ---    0.03255   0.04087   0.04406   0.04792   0.04940
     Eigenvalues ---    0.05012   0.05458   0.05872   0.05949   0.06079
     Eigenvalues ---    0.06160   0.06983   0.07237   0.08052   0.08712
     Eigenvalues ---    0.10282   0.10365   0.12083   0.12970   0.14677
     Eigenvalues ---    0.15142   0.15935   0.16090   0.16793   0.17208
     Eigenvalues ---    0.17831   0.19098   0.19165   0.20709   0.24389
     Eigenvalues ---    0.25150   0.27727   0.28564   0.29932   0.31355
     Eigenvalues ---    0.32063   0.32880   0.33119   0.33212   0.34557
     Eigenvalues ---    0.34789   0.35431   0.39567   0.40351   0.40650
     Eigenvalues ---    0.44287   0.53429   0.53579   0.53628   0.53878
     Eigenvalues ---    0.53996
 Eigenvectors required to have negative eigenvalues:
                          A43       A42       D64       D66       D65
   1                   -0.49998  -0.43280   0.30208  -0.27582   0.26183
                          D5        R9        D18       A35       D3
   1                   -0.23263  -0.19715   0.19001   0.14393  -0.13796
 RFO step:  Lambda0=3.230540202D-02 Lambda=-3.73358664D-02.
 Linear search not attempted -- option 19 set.
 Maximum step size (   0.300) exceeded in Quadratic search.
    -- Step size scaled by   0.467
 Iteration  1 RMS(Cart)=  0.05683875 RMS(Int)=  0.00644593
 Iteration  2 RMS(Cart)=  0.00954836 RMS(Int)=  0.00211772
 Iteration  3 RMS(Cart)=  0.00016495 RMS(Int)=  0.00210529
 Iteration  4 RMS(Cart)=  0.00000217 RMS(Int)=  0.00210529
 Iteration  5 RMS(Cart)=  0.00000003 RMS(Int)=  0.00210529
 Variable       Old X    -DE/DX   Delta X   Delta X   Delta X     New X
                                 (Linear)    (Quad)   (Total)
    R1        2.90236  -0.01832   0.00000  -0.03480  -0.03598   2.86638
    R2        2.61681  -0.00201   0.00000  -0.01116  -0.01116   2.60564
    R3        2.66882   0.00243   0.00000   0.01358   0.01422   2.68304
    R4        2.08386  -0.01758   0.00000  -0.00519  -0.00639   2.07747
    R5        2.73878   0.01794   0.00000  -0.01698  -0.01667   2.72211
    R6        2.07896  -0.00619   0.00000  -0.00818  -0.00818   2.07078
    R7        2.89392   0.00199   0.00000   0.02212   0.02153   2.91545
    R8        2.66850  -0.00374   0.00000  -0.01726  -0.01726   2.65124
    R9        2.23677  -0.05152   0.00000  -0.04551  -0.04397   2.19280
   R10        2.88726   0.00010   0.00000   0.00051  -0.00015   2.88711
   R11        2.66542  -0.00645   0.00000  -0.01471  -0.01471   2.65071
   R12        2.07837  -0.00072   0.00000  -0.00118  -0.00118   2.07719
   R13        2.87000   0.00028   0.00000   0.00170   0.00170   2.87170
   R14        2.68325   0.00448   0.00000   0.00378   0.00245   2.68570
   R15        2.08242  -0.00054   0.00000  -0.00130  -0.00130   2.08112
   R16        2.66957  -0.00009   0.00000  -0.00139  -0.00139   2.66817
   R17        2.07370  -0.00028   0.00000  -0.00067  -0.00067   2.07302
   R18        2.06363  -0.00007   0.00000   0.00003   0.00003   2.06366
   R19        1.82002   0.00016   0.00000   0.00032   0.00032   1.82033
   R20        3.67001   0.00866   0.00000   0.01173   0.01217   3.68219
   R21        3.33352   0.00221   0.00000  -0.00323  -0.00158   3.33194
   R22        1.82083   0.00168   0.00000  -0.00262  -0.00262   1.81821
   R23        1.82121   0.00074   0.00000   0.00036   0.00036   1.82157
   R24        1.82212   0.00067   0.00000   0.00069   0.00069   1.82281
   R25        1.82163   0.00006   0.00000   0.00004   0.00004   1.82167
    A1        1.90054   0.00403   0.00000   0.00793   0.00922   1.90976
    A2        1.90580  -0.00099   0.00000  -0.03954  -0.03900   1.86680
    A3        1.91126  -0.01516   0.00000  -0.01556  -0.01878   1.89248
    A4        1.89807  -0.00049   0.00000   0.00922   0.00752   1.90559
    A5        1.94262  -0.00026   0.00000   0.02573   0.02781   1.97043
    A6        1.90520   0.01292   0.00000   0.01100   0.01069   1.91590
    A7        1.92796   0.01367   0.00000   0.04613   0.04434   1.97230
    A8        2.39672  -0.03123   0.00000  -0.10851  -0.11079   2.28593
    A9        1.91198   0.01564   0.00000   0.08311   0.08542   1.99739
   A10        1.94663  -0.00927   0.00000  -0.03295  -0.03110   1.91553
   A11        1.95399   0.01286   0.00000   0.03450   0.03419   1.98818
   A12        1.58825  -0.00221   0.00000   0.03423   0.03253   1.62078
   A13        1.86540   0.00103   0.00000   0.01191   0.01171   1.87711
   A14        2.02715   0.01114   0.00000  -0.02732  -0.02737   1.99978
   A15        2.07009  -0.01364   0.00000  -0.01781  -0.01821   2.05188
   A16        1.90248   0.00445   0.00000   0.00533   0.00390   1.90637
   A17        1.95890  -0.00634   0.00000  -0.01127  -0.01036   1.94854
   A18        1.88978   0.00088   0.00000  -0.00681  -0.00683   1.88295
   A19        1.88463   0.00415   0.00000   0.01216   0.01164   1.89627
   A20        1.89541  -0.00440   0.00000  -0.00411  -0.00278   1.89263
   A21        1.93159   0.00129   0.00000   0.00492   0.00457   1.93616
   A22        1.96835  -0.00066   0.00000  -0.00784  -0.00757   1.96079
   A23        1.91293  -0.00096   0.00000  -0.00017  -0.00021   1.91272
   A24        1.89946   0.00072   0.00000   0.00431   0.00402   1.90348
   A25        1.85815  -0.00057   0.00000   0.00135   0.00170   1.85985
   A26        1.89919   0.00018   0.00000   0.00266   0.00272   1.90191
   A27        1.92558   0.00132   0.00000  -0.00036  -0.00072   1.92487
   A28        1.95125   0.00019   0.00000   0.00058   0.00058   1.95183
   A29        1.89680  -0.00018   0.00000  -0.00045  -0.00045   1.89635
   A30        1.90707  -0.00040   0.00000  -0.00312  -0.00312   1.90395
   A31        1.93633   0.00024   0.00000   0.00202   0.00202   1.93835
   A32        1.87304   0.00004   0.00000   0.00069   0.00069   1.87373
   A33        1.89851   0.00010   0.00000   0.00019   0.00019   1.89870
   A34        1.91263  -0.00260   0.00000  -0.00367  -0.00367   1.90896
   A35        1.28254   0.01326   0.00000   0.00342  -0.00239   1.28015
   A36        1.61977   0.00150   0.00000   0.13623   0.12547   1.74524
   A37        2.78216   0.01705   0.00000   0.13402   0.12972   2.91187
   A38        1.88938   0.00545   0.00000   0.01206   0.01206   1.90144
   A39        1.87840   0.00150   0.00000   0.00759   0.00759   1.88599
   A40        1.97968   0.00170   0.00000  -0.00633  -0.00582   1.97386
   A41        1.87672   0.00064   0.00000   0.00272   0.00272   1.87944
   A42        1.91819  -0.02485   0.00000   0.10422   0.10274   2.02093
   A43        2.27294  -0.03385   0.00000   0.08380   0.07950   2.35245
    D1        3.06415  -0.00452   0.00000   0.03315   0.03210   3.09625
    D2        0.29469  -0.00334   0.00000  -0.07482  -0.07133   0.22336
    D3        0.99394  -0.00569   0.00000   0.04032   0.04023   1.03416
    D4       -1.77552  -0.00452   0.00000  -0.06765  -0.06321  -1.83873
    D5       -1.09126  -0.01175   0.00000   0.06011   0.06032  -1.03094
    D6        2.42247  -0.01057   0.00000  -0.04786  -0.04312   2.37935
    D7        2.89381  -0.00568   0.00000   0.00595   0.00535   2.89916
    D8       -1.31432  -0.00484   0.00000  -0.03175  -0.03199  -1.34631
    D9        0.78518   0.01070   0.00000   0.00386   0.00471   0.78989
   D10       -1.07333   0.00395   0.00000  -0.02195  -0.02100  -1.09433
   D11        3.13810  -0.00005   0.00000  -0.01405  -0.01406   3.12405
   D12        1.01561  -0.00734   0.00000  -0.05794  -0.06016   0.95544
   D13       -0.38468   0.00389   0.00000   0.00695   0.00565  -0.37903
   D14        1.71766  -0.00126   0.00000   0.02306   0.02240   1.74006
   D15       -2.47024   0.00638   0.00000   0.05781   0.05753  -2.41271
   D16       -0.94933   0.00905   0.00000  -0.01374  -0.01588  -0.96522
   D17       -3.03868   0.00533   0.00000  -0.02984  -0.03217  -3.07086
   D18        1.12292   0.01811   0.00000  -0.03586  -0.03882   1.08410
   D19        1.92762  -0.00245   0.00000   0.02134   0.02676   1.95439
   D20       -0.16173  -0.00617   0.00000   0.00524   0.01047  -0.15125
   D21       -2.28331   0.00661   0.00000  -0.00078   0.00383  -2.27948
   D22        0.93736  -0.00954   0.00000  -0.02979  -0.02859   0.90877
   D23        3.02431  -0.00538   0.00000  -0.01813  -0.01799   3.00632
   D24       -1.12159  -0.00727   0.00000  -0.02400  -0.02357  -1.14516
   D25        3.07831   0.00137   0.00000   0.00059   0.00205   3.08036
   D26       -1.11792   0.00553   0.00000   0.01225   0.01264  -1.10528
   D27        1.01936   0.00364   0.00000   0.00639   0.00707   1.02643
   D28       -0.84973  -0.00708   0.00000  -0.03836  -0.03679  -0.88652
   D29        1.23722  -0.00291   0.00000  -0.02670  -0.02620   1.21103
   D30       -2.90868  -0.00480   0.00000  -0.03256  -0.03177  -2.94045
   D31       -1.03823  -0.00228   0.00000  -0.03448  -0.03285  -1.07108
   D32        3.10860   0.00063   0.00000  -0.02278  -0.02350   3.08510
   D33        0.77626  -0.00407   0.00000   0.02186   0.02095   0.79721
   D34        0.31206   0.00727   0.00000   0.01331   0.01322   0.32528
   D35        2.31358  -0.00179   0.00000  -0.01220  -0.01147   2.30211
   D36       -1.70928  -0.00260   0.00000  -0.04317  -0.04141  -1.75069
   D37       -3.02762  -0.00164   0.00000   0.00627   0.00642  -3.02119
   D38       -0.96089  -0.00341   0.00000   0.00289   0.00365  -0.95724
   D39        1.14634  -0.00193   0.00000   0.00501   0.00513   1.15147
   D40        1.12312   0.00087   0.00000   0.00935   0.00952   1.13264
   D41       -3.09334  -0.00091   0.00000   0.00597   0.00675  -3.08659
   D42       -0.98611   0.00057   0.00000   0.00809   0.00822  -0.97788
   D43       -0.97222  -0.00057   0.00000  -0.00122  -0.00115  -0.97337
   D44        1.09451  -0.00234   0.00000  -0.00460  -0.00392   1.09058
   D45       -3.08145  -0.00087   0.00000  -0.00248  -0.00245  -3.08389
   D46        0.90455  -0.00194   0.00000   0.00279   0.00347   0.90802
   D47        3.00190   0.00244   0.00000   0.01054   0.00958   3.01148
   D48       -1.20886   0.00037   0.00000   0.01578   0.01606  -1.19279
   D49        1.06928  -0.00104   0.00000  -0.00363  -0.00345   1.06582
   D50       -3.07079  -0.00073   0.00000  -0.00100  -0.00083  -3.07162
   D51       -1.00149  -0.00094   0.00000  -0.00283  -0.00265  -1.00415
   D52       -1.02921   0.00090   0.00000   0.00030   0.00012  -1.02909
   D53        1.11392   0.00121   0.00000   0.00292   0.00274   1.11666
   D54       -3.09998   0.00100   0.00000   0.00110   0.00092  -3.09906
   D55       -3.10452  -0.00043   0.00000  -0.00142  -0.00141  -3.10594
   D56       -0.96140  -0.00012   0.00000   0.00120   0.00121  -0.96019
   D57        1.10789  -0.00033   0.00000  -0.00062  -0.00061   1.10728
   D58        1.07824   0.00102   0.00000   0.02305   0.02229   1.10053
   D59       -3.07105  -0.00067   0.00000   0.01430   0.01407  -3.05698
   D60       -1.01308  -0.00009   0.00000   0.01805   0.01791  -0.99517
   D61        0.98021   0.00034   0.00000   0.00591   0.00591   0.98613
   D62       -1.14025   0.00027   0.00000   0.00467   0.00467  -1.13558
   D63        3.07109  -0.00001   0.00000   0.00287   0.00287   3.07396
   D64        1.21872   0.02206   0.00000  -0.07506  -0.07121   1.14752
   D65       -1.65006   0.01185   0.00000  -0.12871  -0.14022  -1.79028
   D66       -1.34423  -0.01455   0.00000   0.08643   0.08292  -1.26131
   D67       -0.47308  -0.00411   0.00000   0.27443   0.27791  -0.19516
         Item               Value     Threshold  Converged?
 Maximum Force            0.051523     0.000450     NO 
 RMS     Force            0.009044     0.000300     NO 
 Maximum Displacement     0.529777     0.001800     NO 
 RMS     Displacement     0.065213     0.001200     NO 
 Predicted change in Energy=-3.134841D-03
 GradGradGradGradGradGradGradGradGradGradGradGradGradGradGradGradGradGrad

                          Input orientation:                          
 ---------------------------------------------------------------------
 Center     Atomic      Atomic             Coordinates (Angstroms)
 Number     Number       Type             X           Y           Z
 ---------------------------------------------------------------------
      1          6           0        0.016069    0.215111    0.128772
      2          6           0       -0.412654    1.661930   -0.025045
      3          6           0        0.054752    2.260475   -1.249079
      4          6           0        1.588160    2.120588   -1.345517
      5          6           0        1.974426    0.658068   -1.131096
      6          6           0        3.479228    0.464653   -1.044678
      7          8           0       -0.418959   -0.265069    1.345898
      8          8           0       -1.906562    0.433176   -1.639081
      9          8           0       -0.254118    3.623703   -1.369703
     10          8           0        2.067457    2.532102   -2.597910
     11          8           0        1.435508    0.198586    0.101090
     12          8           0        4.038572    1.175451    0.039509
     13          1           0       -0.379194   -0.356932   -0.722760
     14          1           0       -0.809300    2.375420    0.705984
     15          1           0       -0.540423    1.514594   -1.909315
     16          1           0        2.033203    2.719652   -0.538485
     17          1           0        1.583558    0.056613   -1.966740
     18          1           0       -0.343872   -1.225364    1.355917
     19          1           0       -2.615644   -0.108725   -1.279517
     20          1           0       -1.212232    3.729254   -1.363245
     21          1           0        1.719979    3.414132   -2.775986
     22          1           0        3.590035    0.885837    0.842133
     23          1           0        3.690934   -0.608662   -0.963583
     24          1           0        3.941349    0.846291   -1.957556
 ---------------------------------------------------------------------
                    Distance matrix (angstroms):
                    1          2          3          4          5
     1  C    0.000000
     2  C    1.516822   0.000000
     3  C    2.466472   1.440480   0.000000
     4  C    2.876776   2.440752   1.542792   0.000000
     5  C    2.370367   2.815891   2.503354   1.527790   0.000000
     6  C    3.665068   4.197603   3.872182   2.531553   1.519640
     7  O    1.378847   2.364921   3.651942   4.118689   3.565947
     8  O    2.620948   2.519268   2.708852   3.891866   3.920548
     9  O    3.733219   2.383650   1.402976   2.377799   3.717302
    10  O    4.124492   3.678013   2.438054   1.402697   2.381638
    11  O    1.419805   2.360718   2.825036   2.410407   1.421210
    12  O    4.136514   4.478196   4.325339   2.969191   2.428724
    13  H    1.099352   2.136288   2.704836   3.224346   2.595475
    14  H    2.383556   1.095810   2.140577   3.165660   3.751439
    15  H    2.480350   1.894335   1.160381   2.283848   2.768344
    16  H    3.284324   2.713782   2.151756   1.099200   2.145873
    17  H    2.621701   3.214356   2.776561   2.155442   1.101284
    18  H    1.926242   3.201289   4.369895   4.714433   3.886779
    19  H    3.002343   3.092261   3.570021   4.758798   4.656044
    20  H    4.010491   2.589195   1.943089   3.229600   4.431802
    21  H    4.644853   3.896923   2.536798   1.933100   3.219673
    22  H    3.705669   4.168433   4.331399   3.212152   2.560411
    23  H    3.921285   4.782874   4.640612   3.466459   2.139875
    24  H    4.489875   4.832930   4.196128   2.745164   2.141787
                    6          7          8          9         10
     6  C    0.000000
     7  O    4.630682   0.000000
     8  O    5.418583   3.407435   0.000000
     9  O    4.901338   4.745967   3.603137   0.000000
    10  O    2.946179   5.436915   4.595397   2.844257   0.000000
    11  O    2.358043   2.281134   3.775270   4.092614   3.623431
    12  O    1.411935   4.863264   6.221998   5.138774   3.561148
    13  H    3.958037   2.071079   1.948529   4.034802   4.224784
    14  H    5.010720   2.744820   3.236607   2.484937   4.383605
    15  H    4.243533   3.711922   1.763187   2.195790   2.882798
    16  H    2.726213   4.297971   4.686260   2.596164   2.068231
    17  H    2.147151   3.884215   3.525635   4.056801   2.600111
    18  H    4.820281   0.963278   3.763345   5.563318   5.963707
    19  H    6.126286   3.426759   0.962153   4.417686   5.535662
    20  H    5.724412   4.891150   3.379692   0.963931   3.703232
    21  H    3.846012   5.924652   4.830161   2.432819   0.964588
    22  H    1.936422   4.201237   6.047636   5.212067   4.106376
    23  H    1.096997   4.726837   5.733558   5.800111   3.895010
    24  H    1.092040   5.582134   5.871130   5.065722   2.600670
                   11         12         13         14         15
    11  O    0.000000
    12  O    2.781006   0.000000
    13  H    2.068931   4.737711   0.000000
    14  H    3.184912   5.038449   3.113205   0.000000
    15  H    3.110933   4.987998   2.221826   2.766424   0.000000
    16  H    2.668720   2.596177   3.913947   3.122022   3.155137
    17  H    2.077978   3.362131   2.360276   4.271544   2.576879
    18  H    2.601619   5.167461   2.253069   3.688452   4.267052
    19  H    4.290961   6.904167   2.318036   3.657331   2.708938
    20  H    4.649776   6.005045   4.219133   2.505380   2.377865
    21  H    4.324144   4.279553   4.779454   4.427221   3.077138
    22  H    2.379799   0.963985   4.443888   4.646669   5.002648
    23  H    2.621474   2.076079   4.085010   5.651929   4.827733
    24  H    3.307081   2.026343   4.651835   5.656973   4.531583
                   16         17         18         19         20
    16  H    0.000000
    17  H    3.055137   0.000000
    18  H    4.980200   4.049506   0.000000
    19  H    5.491868   4.258276   3.654223   0.000000
    20  H    3.497480   4.654991   5.718053   4.087378   0.000000
    21  H    2.363645   3.456359   6.546527   5.783386   3.270015
    22  H    2.773573   3.550116   4.494081   6.633325   6.000873
    23  H    3.742520   2.426921   4.694685   6.334246   6.558832
    24  H    3.027254   2.486535   5.799481   6.660777   5.934988
                   21         22         23         24
    21  H    0.000000
    22  H    4.793763   0.000000
    23  H    4.832426   2.346129   0.000000
    24  H    3.492581   2.821923   1.779770   0.000000
 Symmetry turned off by external request.
 Stoichiometry    C6H12O6
 Framework group  C1[X(C6H12O6)]
 Deg. of freedom    66
 Full point group                 C1      NOp   1
 Rotational constants (GHZ):      1.0810345      0.7836699      0.5476112
 Standard basis: 6-31+G(2df,p) (6D, 7F)
 Integral buffers will be    131072 words long.
 Raffenetti 2 integral format.
 Two-electron integral symmetry is turned off.
   444 basis functions,   660 primitive gaussians,   480 cartesian basis functions
    48 alpha electrons       48 beta electrons
       nuclear repulsion energy       818.4309133681 Hartrees.
 NAtoms=   24 NActive=   24 NUniq=   24 SFac= 1.00D+00 NAtFMM=   50 NAOKFM=F Big=F
 ------------------------------------------------------------------------------
 Polarizable Continuum Model (PCM)
 =================================
 Model                : PCM.
 Atomic radii         : UFF (Universal Force Field).
 Polarization charges : Total charges.
 Charge compensation  : None.
 Solution method      : Matrix inversion.
 Cavity type          : Scaled VdW (van der Waals Surface) (Alpha=1.100).
 Cavity algorithm     : GePol (No added spheres)
                        Default sphere list used, NSphG=   24.
                        Lebedev-Laikov grids with approx.  5.0 points / Ang**2.
                        Smoothing algorithm: Karplus/York (Gamma=1.0000).
                        Polarization charges: spherical gaussians, with
                                              point-specific exponents (IZeta= 3).
                        Self-potential: point-specific (ISelfS= 7).
                        Self-field    : sphere-specific E.n sum rule (ISelfD= 2).
 1st derivatives      : Analytical E(r).r(x)/FMM algorithm (CHGder, D1EAlg=3).
                        Cavity 1st derivative terms included.
 Solvent              : Ethanol, Eps=  24.852000 Eps(inf)=   1.852593
 ------------------------------------------------------------------------------
 One-electron integrals computed using PRISM.
 NBasis=   444 RedAO= T  NBF=   444
 NBsUse=   444 1.00D-06 NBFU=   444
 Initial guess read from the read-write file.
 B after Tr=     0.000000    0.000000    0.000000
         Rot=    1.000000    0.000000    0.000000    0.000000 Ang=   0.00 deg.
 Harris functional with IExCor= 1009 diagonalized for initial guess.
 ExpMin= 4.38D-02 ExpMax= 5.48D+03 ExpMxC= 8.25D+02 IAcc=2 IRadAn=         0 AccDes= 0.00D+00
 HarFok:  IExCor= 1009 AccDes= 0.00D+00 IRadAn=         0 IDoV= 1
 ScaDFX=  1.000000  1.000000  1.000000  1.000000
 FoFCou: FMM=F IPFlag=           0 FMFlag=      100000 FMFlg1=           0
         NFxFlg=           0 DoJE=T BraDBF=F KetDBF=T FulRan=T
         Omega=  0.000000  0.000000  1.000000  0.000000  0.000000 ICntrl=     500 IOpCl=  0
         NMat0=    1 NMatS0=    1 NMatT0=    0 NMatD0=    1 NMtDS0=    0 NMtDT0=    0
         I1Cent=           4 NGrid=           0.
 Symmetry not used in FoFCou.
 Requested convergence on RMS density matrix=1.00D-08 within  64 cycles.
 Requested convergence on MAX density matrix=1.00D-06.
 Requested convergence on             energy=1.00D-06.
 No special actions if energy rises.
 Error on total polarization charges =  0.01427
 SCF Done:  E(RM062X) =  -686.848409828     A.U. after   15 cycles
             Convg  =    0.6102D-08             -V/T =  2.0059
 QCSCF skips out because SCF is already converged.
 D1PCM: PCM CHGder 1st derivatives, ID1Alg=3 FixD1E=F DoIter=F DoCFld=F I1PDM=0.
 Calling FoFJK, ICntrl=      2127 FMM=F ISym2X=0 I1Cent= 0 IOpClX= 0 NMat=1 NMatS=1 NMatT=0.
 -------------------------------------------------------------------
 Center     Atomic                   Forces (Hartrees/Bohr)
 Number     Number              X              Y              Z
 -------------------------------------------------------------------
      1        6           0.000418646   -0.006745733    0.012612955
      2        6          -0.000934708   -0.013661903   -0.018844376
      3        6          -0.009333460   -0.006634986   -0.004746622
      4        6           0.005167565   -0.005047958   -0.003819562
      5        6           0.000479438   -0.002804581   -0.001352291
      6        6           0.000776772    0.000080132    0.000839003
      7        8           0.001011641    0.001923993    0.000574823
      8        8          -0.006625497    0.016220218    0.018558437
      9        8          -0.001249228   -0.004705601   -0.004434116
     10        8          -0.004462431   -0.001430153    0.002645632
     11        8           0.002245122    0.008788952    0.002937993
     12        8          -0.000618881    0.000356256   -0.000288884
     13        1           0.003491367    0.004399352    0.004482146
     14        1          -0.008214168   -0.015906498    0.005837879
     15        1           0.020070394    0.024121335   -0.006678787
     16        1          -0.000895125    0.001112199   -0.000875909
     17        1          -0.000265499    0.000490253    0.000230306
     18        1           0.000149388   -0.000134025   -0.000799437
     19        1          -0.001801330   -0.002534677   -0.003952890
     20        1          -0.000205013    0.001628628   -0.002796956
     21        1           0.000735200    0.000636909   -0.000229052
     22        1           0.000433499   -0.000163061    0.000233815
     23        1          -0.000255570    0.000112134   -0.000098590
     24        1          -0.000118122   -0.000101186   -0.000035517
 -------------------------------------------------------------------
 Cartesian Forces:  Max     0.024121335 RMS     0.006745253

 GradGradGradGradGradGradGradGradGradGradGradGradGradGradGradGradGradGrad
 Berny optimization.
 Internal  Forces:  Max     0.031462785 RMS     0.005814115
 Search for a saddle point.
 Step number   2 out of a maximum of  144
 All quantities printed in internal units (Hartrees-Bohrs-Radians)
 Swaping is turned off.
 Update second derivatives using D2CorX and points    1    2
 ITU=  0  0
     Eigenvalues ---   -0.13484  -0.00801   0.00105   0.00279   0.00335
     Eigenvalues ---    0.00352   0.00375   0.00490   0.00701   0.00717
     Eigenvalues ---    0.00974   0.01279   0.01543   0.02059   0.02513
     Eigenvalues ---    0.03245   0.04086   0.04417   0.04792   0.04940
     Eigenvalues ---    0.05010   0.05503   0.05866   0.05950   0.06070
     Eigenvalues ---    0.06168   0.06981   0.07233   0.08047   0.08704
     Eigenvalues ---    0.10283   0.10366   0.12082   0.12962   0.14660
     Eigenvalues ---    0.15126   0.15934   0.16089   0.16796   0.17206
     Eigenvalues ---    0.17830   0.19092   0.19165   0.20709   0.24387
     Eigenvalues ---    0.25146   0.27723   0.28551   0.29930   0.31349
     Eigenvalues ---    0.32064   0.32884   0.33119   0.33212   0.34559
     Eigenvalues ---    0.34789   0.35427   0.39565   0.40352   0.40651
     Eigenvalues ---    0.44285   0.53429   0.53579   0.53628   0.53879
     Eigenvalues ---    0.53996
 Eigenvectors required to have negative eigenvalues:
                          A43       A42       D64       D66       D5
   1                   -0.49317  -0.42409   0.31430  -0.28015  -0.23483
                          D65       D18       R9        A35       D3
   1                    0.22573   0.20462  -0.19738   0.15695  -0.14179
 RFO step:  Lambda0=1.531232890D-02 Lambda=-2.09605804D-02.
 Linear search not attempted -- option 19 set.
 Maximum step size (   0.300) exceeded in Quadratic search.
    -- Step size scaled by   0.528
 Iteration  1 RMS(Cart)=  0.03238985 RMS(Int)=  0.02276725
 Iteration  2 RMS(Cart)=  0.01870489 RMS(Int)=  0.00918736
 Iteration  3 RMS(Cart)=  0.01416003 RMS(Int)=  0.00367711
 Iteration  4 RMS(Cart)=  0.00094606 RMS(Int)=  0.00345699
 Iteration  5 RMS(Cart)=  0.00003694 RMS(Int)=  0.00345682
 Iteration  6 RMS(Cart)=  0.00000084 RMS(Int)=  0.00345682
 Variable       Old X    -DE/DX   Delta X   Delta X   Delta X     New X
                                 (Linear)    (Quad)   (Total)
    R1        2.86638  -0.01025   0.00000  -0.02171  -0.02414   2.84224
    R2        2.60564  -0.00120   0.00000  -0.00926  -0.00926   2.59639
    R3        2.68304   0.00174   0.00000   0.01121   0.01181   2.69485
    R4        2.07747  -0.01021   0.00000  -0.00148  -0.00332   2.07415
    R5        2.72211   0.01205   0.00000  -0.01763  -0.01803   2.70409
    R6        2.07078  -0.00349   0.00000  -0.00554  -0.00554   2.06524
    R7        2.91545   0.00169   0.00000   0.02165   0.02101   2.93646
    R8        2.65124  -0.00205   0.00000  -0.01332  -0.01332   2.63792
    R9        2.19280  -0.03146   0.00000  -0.02274  -0.01997   2.17283
   R10        2.88711  -0.00011   0.00000  -0.00140  -0.00371   2.88340
   R11        2.65071  -0.00368   0.00000  -0.01177  -0.01177   2.63894
   R12        2.07719  -0.00039   0.00000  -0.00119  -0.00119   2.07600
   R13        2.87170   0.00022   0.00000   0.00157   0.00157   2.87327
   R14        2.68570   0.00231   0.00000   0.00000  -0.00233   2.68336
   R15        2.08112  -0.00034   0.00000  -0.00117  -0.00117   2.07996
   R16        2.66817  -0.00004   0.00000  -0.00120  -0.00120   2.66697
   R17        2.07302  -0.00017   0.00000  -0.00060  -0.00060   2.07242
   R18        2.06366  -0.00004   0.00000   0.00006   0.00006   2.06372
   R19        1.82033   0.00016   0.00000   0.00032   0.00032   1.82066
   R20        3.68219   0.00625   0.00000   0.03111   0.03308   3.71526
   R21        3.33194   0.00175   0.00000  -0.00708  -0.00358   3.32836
   R22        1.81821   0.00128   0.00000  -0.00215  -0.00215   1.81605
   R23        1.82157   0.00037   0.00000   0.00013   0.00013   1.82170
   R24        1.82281   0.00038   0.00000   0.00050   0.00050   1.82330
   R25        1.82167   0.00003   0.00000  -0.00005  -0.00005   1.82162
    A1        1.90976   0.00275   0.00000   0.00714   0.00866   1.91842
    A2        1.86680  -0.00089   0.00000  -0.03412  -0.03270   1.83410
    A3        1.89248  -0.00943   0.00000  -0.01673  -0.02019   1.87228
[...]
 8879,0.00377097,0.00387154,-0.00285825,-0.02674789,-0.02243101,-0.0125
 2969,-0.09818632,-0.07820845,-0.07259292,0.00620619,0.00911166,0.00644
 375,0.00003225,-0.00009497,0.00006559,0.00019455,-0.00028101,0.0002260
 9,-0.00714023,-0.00482982,0.00004489,0.00509375,-0.00028128,0.00118458
 ,0.00462702,0.00328698,0.00954177,0.00068112,-0.00049708,-0.00001754,-
 0.00160280,0.00109644,-0.00054346,0.00012254,-0.00018513,0.00022283,0.
 00001809,-0.00000387,0.00004389,0.00224071,0.00279657,0.00025174,0.111
 01333,0.00037842,0.00010576,-0.00023253,0.00038019,0.00063802,-0.00101
 623,-0.00329784,-0.00104492,-0.00056368,-0.07450733,-0.16250148,-0.099
 81161,-0.01256916,-0.02202878,-0.01786075,-0.00165411,-0.00053120,-0.0
 0135095,-0.00009935,-0.00015075,0.00033107,-0.00171797,-0.00093112,0.0
 0080158,0.00098418,0.00276985,0.00168235,0.00370930,0.00814535,0.01133
 366,0.00053372,0.00145360,0.00120730,-0.00072626,0.00190497,0.00064126
 ,0.00011624,0.00011415,0.00008112,-0.00023098,-0.00012809,0.00003758,0
 .00198844,0.00112895,-0.00041937,0.08371523,0.17445156,0.00076827,0.00
 012204,0.00021701,-0.00026356,0.00030858,0.00038880,0.00425375,0.00243
 505,0.00691355,-0.06433992,-0.09365774,-0.12749048,0.00284608,0.002896
 32,0.00433081,-0.00067024,-0.00097537,-0.00037704,-0.00010847,0.000086
 29,-0.00000880,0.00114931,0.00113874,-0.00096498,-0.00061713,0.0007904
 1,-0.00050130,-0.00786429,-0.01620830,-0.04189378,-0.00079559,-0.00171
 213,0.00125531,-0.00137190,0.00127165,-0.00025000,-0.00001764,-0.00000
 185,-0.00011689,-0.00023739,-0.00013362,-0.00004488,-0.00115280,-0.001
 43391,0.00059747,0.07096308,0.10436542,0.15763151,0.00240033,0.0026431
 7,0.00385811,-0.00025889,-0.00017677,0.00035491,0.00082193,-0.00000087
 ,0.00005157,0.00470929,0.00966201,0.00698099,-0.07800668,-0.05023532,-
 0.05681953,-0.00459891,-0.02070377,-0.02224001,-0.00029864,-0.00027710
 ,-0.00044965,0.00005671,0.00017847,-0.00009876,-0.00020942,-0.00021609
 ,-0.00016023,-0.00051229,-0.00125877,0.00068239,0.00186334,0.00611747,
 0.01365178,-0.00888191,-0.00102260,-0.00308503,0.00044748,-0.00067359,
 -0.00049516,-0.00000710,-0.00008695,0.00004147,-0.00004376,-0.00004524
 ,-0.00013657,-0.00041478,0.00165842,-0.00046356,0.08084520,0.00083234,
 0.00164151,0.00178610,0.00007081,-0.00072608,-0.00049366,-0.00105811,0
 .00118409,0.00016634,-0.01070473,-0.02181664,-0.02178382,-0.05218837,-
 0.15415131,-0.11274348,0.00232283,-0.00046970,0.00141789,-0.00006572,-
 0.00006758,0.00015285,0.00034527,0.00019603,-0.00015665,0.00079746,-0.
 00009852,0.00043421,0.00018190,0.00326027,0.00015983,0.00260381,0.0100
 5416,0.01018272,0.00035041,0.00136002,-0.00015550,0.00071883,-0.000217
 06,-0.00045722,-0.00001276,0.00002951,-0.00003340,-0.00015275,-0.00020
 026,0.00006519,0.00245948,-0.00446390,0.00137489,0.05405896,0.16390662
 ,-0.00620819,-0.00193642,-0.00020073,0.00028865,0.00020169,-0.00002445
 ,0.00008845,0.00025187,0.00035156,0.00056048,0.00303827,0.00235801,-0.
 05305538,-0.11035066,-0.16358004,-0.00171927,-0.00186191,-0.00054161,0
 .00074870,0.00089168,0.00037333,0.00023348,-0.00006073,-0.00004148,-0.
 00012681,-0.00005024,-0.00001189,-0.00013336,0.00003697,0.00232528,0.0
 0131961,-0.01224833,-0.03906123,0.00028576,0.00020738,0.00125955,0.001
 38073,0.00076291,0.00059669,-0.00002995,-0.00007626,-0.00001459,0.0000
 5256,-0.00010911,-0.00005414,-0.00012963,0.00104417,-0.00013172,0.0566
 7982,0.12010574,0.19618155,0.00326713,-0.01624994,0.00688506,0.0009877
 0,0.00079312,0.00080969,0.00009746,-0.00024862,-0.00012676,0.00005345,
 -0.00010654,-0.00019782,-0.00066628,0.00032099,0.00071442,-0.00003823,
 -0.00002125,0.00000008,-0.08224528,0.18522389,-0.02331421,0.00009704,-
 0.00020816,0.00036670,-0.00010405,-0.00002678,-0.00002185,0.00001999,0
 .00016966,-0.00014355,0.00066530,0.00016126,-0.00023756,0.00004160,0.0
 0002307,-0.00001464,-0.00043364,0.00017983,0.00102280,0.00021787,-0.00
 024080,-0.00013869,0.00013053,0.00010428,-0.00006368,0.00000380,-0.000
 02059,0.00002398,0.00000928,-0.00004571,-0.00015124,0.07796526,0.00349
 663,-0.01358631,0.00218700,-0.00016738,0.00043719,0.00152419,-0.000009
 67,0.00008921,-0.00050613,0.00004754,-0.00028462,0.00004550,-0.0000875
 1,-0.00005282,0.00128507,-0.00016629,0.00015371,-0.00033853,0.16419749
 ,-0.44544536,0.09003254,0.00015505,-0.00009820,0.00051877,-0.00008415,
 0.00036501,-0.00004429,0.00003058,0.00028050,-0.00028782,0.00207270,0.
 00102059,-0.00265752,0.00020957,0.00004420,0.00008181,-0.00003426,0.00
 256867,-0.00149917,-0.00023576,0.00048444,0.00019771,0.00029378,0.0002
 0255,-0.00001901,0.00002017,0.00004290,0.00001707,-0.00001542,-0.00000
 094,-0.00014486,-0.16975438,0.45382194,-0.01437311,0.04226365,-0.01414
 984,0.00369804,0.00216543,-0.00595513,-0.00107318,0.00051782,0.0006571
 1,-0.00023378,0.00012481,0.00020518,0.00010944,0.00007160,-0.00061023,
 0.00011352,-0.00009074,0.00012211,-0.00106125,0.04697816,-0.04721985,-
 0.00021580,-0.00010673,0.00030298,0.00001961,0.00036597,-0.00051836,0.
 00003706,-0.00013308,0.00008506,-0.00063645,-0.00153732,0.00184504,-0.
 00011598,-0.00004386,-0.00007666,-0.00102467,-0.00022404,0.00102257,-0
 .00006794,-0.00012262,0.00021855,0.00022783,0.00006707,0.00006819,0.00
 004284,-0.00001638,-0.00001975,0.00000640,-0.00001676,-0.00000863,0.01
 455597,-0.09040179,0.06398768,-0.00134754,0.00077688,-0.00090722,-0.00
 855349,0.00493376,0.00326249,-0.00056962,-0.00312062,0.00408041,-0.000
 18394,-0.00037051,-0.00094254,-0.00027164,-0.00015727,0.00039420,-0.00
 004416,0.00004265,-0.00007112,0.00008885,-0.00031330,0.00042904,-0.352
 42018,0.20087332,0.07571913,-0.00024768,-0.00220255,-0.00147745,0.0002
 5957,0.00009556,-0.00011278,0.00125970,-0.00022895,-0.00007703,0.00005
 344,0.00003363,0.00002703,0.00015594,-0.00029116,0.00015076,0.00156360
 ,0.00041970,0.00036883,-0.01084255,0.00417811,-0.00031687,-0.00029098,
 -0.00003609,0.00005426,-0.00002376,0.00000984,-0.00002968,-0.00000631,
 0.00005545,-0.00007556,0.37132604,0.00004885,-0.00121899,-0.00049674,-
 0.00078916,0.00306316,0.00351673,-0.00399807,-0.00351198,-0.00039483,-
 0.00006931,-0.00035952,-0.00028455,-0.00002825,-0.00013361,0.00004676,
 0.00001095,0.00002822,0.00001312,-0.00006301,0.00011575,0.00016892,0.2
 1821856,-0.14624737,-0.05011403,-0.00008517,-0.00145840,-0.00044254,0.
 00002460,-0.00003361,0.00007622,0.00013798,0.00047748,0.00023634,-0.00
 000010,0.00001232,-0.00001038,0.00001781,0.00055291,0.00035016,-0.0008
 0996,0.00030157,-0.00055377,-0.00737210,0.01133672,0.00059614,-0.00020
 239,-0.00013076,-0.00003161,-0.00002893,0.00000959,0.00000594,-0.00002
 433,0.00002870,-0.00002676,-0.20496188,0.13709573,-0.00357167,-0.00223
 920,-0.00191955,-0.00131271,0.01974223,0.00918979,0.00123538,0.0003148
 7,0.00594170,-0.00059205,-0.00031486,-0.00031421,0.00015956,0.00012286
 ,-0.00041472,0.00005411,-0.00003569,0.00010086,0.00004905,0.00030311,-
 0.00016206,0.07692272,-0.04471145,-0.06611393,0.00006266,0.00048470,0.
 00007778,0.00029587,-0.00003915,-0.00015434,-0.00150594,0.00082338,-0.
 00043754,-0.00004379,-0.00001644,-0.00001282,-0.00018875,-0.00033646,-
 0.00020362,0.00004995,-0.00031189,-0.00056052,0.00849448,-0.02146442,0
 .00149241,-0.00004916,0.00007006,-0.00008178,0.00000178,-0.00000448,0.
 00004606,0.00004318,0.00003483,-0.00005066,-0.08024189,0.04757038,0.05
 360094,-0.00019630,-0.00036128,-0.00005718,0.00008836,-0.00145672,0.00
 102476,-0.00416832,0.00621302,-0.00792963,-0.00144486,0.00255253,-0.00
 209641,-0.00013817,0.00041914,0.00027887,-0.00005591,0.00001524,-0.000
 01448,0.00002412,-0.00020227,0.00016936,0.00040503,0.00008984,-0.00041
 811,-0.02430335,0.04570684,-0.08984926,0.00111711,-0.00112143,0.000268
 30,-0.00008680,-0.00010804,0.00017944,0.00007587,-0.00003240,0.0000555
 2,0.00003839,-0.00007030,0.00001880,0.00001475,0.00010846,-0.00016689,
 -0.00019852,-0.00082458,0.00076658,0.00024039,0.00002723,-0.00005173,-
 0.00004638,0.00004906,-0.00002687,0.00000156,0.00000607,0.00003253,0.0
 0011027,-0.00000565,0.00006348,0.02865804,-0.00185160,-0.00084929,0.00
 038820,0.00081596,-0.00868935,0.00193116,0.00583922,-0.01963951,0.0300
 4568,0.00128167,-0.00072414,0.00108716,0.00000295,-0.00015968,0.000001
 54,0.00011013,-0.00004488,-0.00001212,0.00018714,-0.00049552,0.0001902
 1,0.00258825,0.00024940,0.00102256,0.04190511,-0.09158312,0.13372999,-
 0.00041468,0.00045792,-0.00011394,-0.00010160,0.00061215,-0.00017314,-
 0.00011205,0.00002223,-0.00007728,0.00013441,-0.00016676,-0.00006964,0
 .00105853,0.00040589,-0.00026020,-0.00071574,0.00080278,-0.00000403,-0
 .00015067,-0.00021848,-0.00001113,0.00001116,-0.00003773,-0.00001569,-
 0.00000037,-0.00000279,0.00014801,0.00028398,0.00006832,-0.00001836,-0
 .05090464,0.11992132,-0.00037900,0.00049098,0.00000165,0.00325398,0.00
 091439,0.00021402,0.00396666,-0.01048238,0.00893196,-0.00031197,-0.001
 25963,0.00070022,0.00040524,0.00018028,0.00000080,-0.00014844,-0.00016
 620,0.00001045,0.00009735,-0.00039479,0.00033648,-0.00283300,-0.000511
 27,-0.00065244,-0.10254675,0.17990734,-0.46379988,-0.00031596,0.000247
 71,-0.00065616,0.00024369,-0.00030170,-0.00004368,0.00013320,0.0000092
 2,0.00009595,0.00002368,-0.00004590,0.00001201,-0.00069768,-0.00040880
 ,0.00023682,0.00158842,-0.00047032,0.00049112,0.00012269,0.00007755,-0
 .00008857,-0.00004432,-0.00001233,-0.00002921,0.00001386,0.00002726,0.
 00005404,-0.00015839,-0.00019456,-0.00000483,0.09768118,-0.16768444,0.
 45432571,-0.00065804,0.00009825,0.00004260,0.00004176,0.00087346,0.000
 82635,-0.00234790,-0.00163296,0.00354119,-0.00749573,-0.00093229,-0.00
 612640,0.00090371,-0.00062622,-0.00073913,0.00053108,0.00021217,-0.000
 61841,0.00014608,-0.00002808,-0.00003728,-0.00025759,-0.00015184,0.000
 25549,0.00051299,-0.00005411,-0.00010715,-0.43259801,-0.20808618,0.022
 16237,0.00015685,0.00094882,-0.00091234,-0.00030102,-0.00007325,0.0002
 5896,0.00004619,-0.00001224,0.00002704,-0.00031112,-0.00031668,0.00009
 300,0.00078704,0.00038647,-0.00019837,0.00160083,0.00092319,-0.0021409
 8,0.00001797,0.00006085,0.00004821,-0.00000532,-0.00002475,0.00001860,
 -0.00000456,-0.00001307,0.00005389,-0.00010177,0.00002250,-0.00017011,
 0.44011088,-0.00037218,-0.00015474,0.00008952,0.00046430,0.00011298,-0
 .00010515,0.00034437,0.00090547,-0.00079683,-0.00523319,-0.00546023,-0
 .00311297,-0.00209341,-0.00159757,0.00172251,-0.00045078,0.00017732,0.
 00173130,0.00015802,0.00013804,-0.00019811,0.00034019,0.00019639,-0.00
 006344,-0.00002737,0.00014703,0.00026739,-0.20386834,-0.09873607,0.016
 16561,0.00095377,0.00021635,-0.00007408,-0.00009318,-0.00017327,-0.000
 76043,0.00002194,0.00003220,0.00001998,0.00000989,0.00000020,-0.000109
 17,-0.00010189,-0.00005076,0.00008681,0.00097069,0.00148127,-0.0006882
 8,-0.00008658,0.00022324,0.00003530,-0.00000945,-0.00003725,0.00001458
 ,-0.00001670,0.00000446,0.00000955,-0.00009956,0.00007327,0.00008172,0
 .20749582,0.10322469,0.00021354,-0.00017926,0.00005389,0.00195233,-0.0
 0024652,-0.00096962,0.00101592,0.00295907,-0.00451527,0.03804609,0.017
 65849,-0.00526956,0.00114883,0.00051202,-0.00116849,0.00003352,0.00061
 902,-0.00057034,-0.00009934,-0.00001623,0.00005932,-0.00051109,-0.0002
 6561,-0.00032471,-0.00006497,-0.00024089,0.00030344,-0.02492256,-0.006
 41189,-0.04265162,-0.00057174,0.00010810,-0.00006418,0.00025569,-0.000
 32365,0.00034101,-0.00001829,0.00000076,-0.00000403,0.00018506,0.00026
 373,-0.00024982,-0.00022314,-0.00000821,0.00030599,0.00050144,-0.00070
 783,0.00078554,-0.00003003,-0.00020835,0.00004096,-0.00000147,0.000021
 75,-0.00001111,-0.00005585,-0.00002302,-0.00004129,0.00007914,-0.00012
 056,-0.00008959,-0.01631853,-0.01370600,0.05337536,-0.00238789,-0.0002
 9646,0.00145097,0.00001001,0.00027368,-0.00012220,-0.00001301,0.000229
 21,0.00024995,-0.00038221,0.00029059,-0.00049184,0.00043732,-0.0000365
 9,-0.00450210,0.00595687,0.00279313,-0.01675191,0.00043220,0.00033874,
 -0.00062725,0.00041954,0.00001509,-0.00004477,0.00012810,-0.00030070,0
 .00000904,-0.00013170,-0.00020639,0.00064194,0.00162309,0.00046397,0.0
 0045179,-0.12477719,-0.08069339,0.20690860,0.00057743,0.00013959,0.000
 13410,0.00003294,-0.00007140,0.00000493,-0.00020070,-0.00013418,0.0000
 1508,-0.00006828,0.00023335,-0.00002974,0.00006105,0.00003447,0.000638
 10,-0.00007041,-0.00017268,0.00006890,-0.00004418,-0.00000591,0.000047
 91,-0.00001864,0.00001703,-0.00004239,0.00012756,-0.00005733,0.0000254
 5,0.11914788,-0.00051494,-0.00044796,0.00063092,0.00019710,0.00022925,
 -0.00005048,-0.00000800,0.00003451,0.00002438,0.00029914,0.00006241,0.
 00036448,-0.00063863,0.00109992,-0.00077429,0.01061413,0.00454829,-0.0
 2695897,0.00004731,0.00004520,-0.00012661,-0.00002008,-0.00013769,0.00
 002130,-0.00007598,-0.00000510,0.00001402,-0.00010473,-0.00005705,-0.0
 0029081,0.00046652,-0.00042458,0.00012739,-0.08885952,-0.06999038,0.13
 459529,0.00012961,0.00004208,0.00003777,0.00001741,-0.00003926,0.00000
 015,0.00005523,0.00005327,-0.00003292,0.00010277,-0.00036474,0.0001024
 5,-0.00005827,-0.00017030,0.00014857,-0.00004973,-0.00004412,0.0000109
 2,-0.00001286,-0.00000156,0.00002730,0.00000927,-0.00001205,0.00000205
 ,-0.00005573,-0.00006660,0.00001148,0.07933169,0.06720489,-0.00136062,
 -0.00004508,0.00089593,-0.00018866,0.00003624,-0.00000064,-0.00005810,
 0.00014591,0.00017173,-0.00024398,0.00063169,-0.00070752,0.00033240,0.
 00102095,-0.00042751,0.01297409,0.00735346,-0.03298512,0.00024146,0.00
 018071,-0.00049977,0.00044179,0.00016582,-0.00005591,0.00025338,-0.000
 33545,-0.00003689,-0.00005443,-0.00013882,0.00059044,0.00143220,0.0003
 8406,0.00042610,0.17248318,0.09794295,-0.37390958,0.00032028,0.0000670
 0,-0.00002149,0.00004927,-0.00002565,-0.00000505,-0.00023831,-0.000181
 71,0.00003754,-0.00024014,0.00034133,-0.00015171,0.00090192,0.00009781
 ,0.00012404,-0.00002158,-0.00008370,0.00005546,-0.00002106,-0.00000074
 ,0.00002539,-0.00002441,0.00002306,-0.00004707,0.00004878,0.00005038,-
 0.00010033,-0.18542021,-0.10406477,0.40681952,-0.00004741,-0.00004809,
 -0.00028223,0.00061239,0.00045152,-0.00003158,0.00080926,0.00129000,-0
 .00042317,-0.00710656,-0.00306477,0.00168184,-0.01353832,0.03376685,-0
 .00775475,-0.06971797,0.06926483,-0.01027733,0.00002818,-0.00007170,0.
 00007305,-0.00062094,-0.00043726,0.00005156,-0.00118215,0.00088088,0.0
 0007238,0.00079291,-0.00009125,-0.00044831,0.00336608,-0.00031996,-0.0
 0084175,0.00484917,-0.01735897,-0.00313867,0.00004501,0.00001692,0.000
 02789,-0.00008981,-0.00006232,0.00000869,0.00035676,0.00026107,-0.0000
 9313,0.00016527,-0.00002260,0.00018364,0.00126469,-0.00032957,-0.00014
 066,-0.00001203,0.00000494,0.00001207,-0.00000489,-0.00000803,0.000013
 23,0.00000412,-0.00001619,0.00010523,-0.00015320,0.00011416,-0.0000789
 1,-0.00023441,0.00068250,0.00082958,0.07548163,-0.00021042,0.00009863,
 0.00002095,-0.00028779,-0.00004140,0.00002604,-0.00020303,-0.00005540,
 0.00006363,0.00007977,0.00147580,0.00046070,-0.00009849,-0.00245026,0.
 00271184,0.07039399,-0.27651204,0.04412451,0.00011132,0.00007468,-0.00
 012538,0.00026038,0.00013176,0.00001161,0.00016737,-0.00013218,-0.0000
 6473,0.00013110,-0.00021078,0.00010205,-0.00022361,0.00067641,-0.00074
 990,-0.00190226,-0.02374132,-0.01305524,0.00002507,0.00000492,-0.00000
 160,0.00000426,0.00001532,-0.00000707,-0.00011330,-0.00008330,0.000020
 32,-0.00024131,0.00020575,-0.00005427,0.00080163,0.00058880,-0.0000101
 2,0.00000637,-0.00002739,0.00000503,0.00000357,0.00000439,0.00000559,-
 0.00002827,0.00002088,-0.00002607,-0.00004969,0.00023582,-0.00016602,-
 0.00092483,0.00018372,0.00075093,-0.07166730,0.30803633,0.00012487,0.0
 0005268,0.00002832,0.00022191,0.00012150,0.00000404,0.00012334,0.00002
 802,-0.00010206,-0.00062656,-0.00026203,0.00008124,0.00165273,0.002725
 87,-0.00004928,-0.01106333,0.04808045,-0.05893013,-0.00009153,-0.00005
 326,0.00007674,-0.00028304,-0.00013814,0.00000030,-0.00026468,0.000202
 68,0.00000801,-0.00060405,0.00035476,0.00039514,-0.00031676,-0.0009085
 5,0.00079282,0.00143704,-0.03681881,-0.00403951,0.00000571,-0.00001595
 ,-0.00001609,-0.00002536,-0.00002143,0.00001572,0.00013453,0.00010046,
 -0.00002174,0.00001933,0.00000815,-0.00001255,-0.00008878,0.00035504,-
 0.00005622,0.00001284,0.00001827,-0.00000674,-0.00000062,-0.00000675,-
 0.00000588,0.00001011,-0.00000947,0.00001953,0.00017650,-0.00062754,0.
 00030240,0.00018408,-0.00066539,0.00156861,0.01760839,-0.03644347,0.06
 295110,0.00194286,0.00060054,0.00125385,-0.00006285,-0.00044831,0.0000
 5289,0.00000124,-0.00014086,-0.00012887,0.00056238,-0.00035485,0.00139
 217,-0.00740799,-0.01157847,0.02696892,-0.10058872,-0.03819376,0.09917
 114,-0.00113223,-0.00055100,0.00082157,-0.00003461,0.00016413,-0.00002
 431,0.00011270,0.00009158,-0.00001778,0.00104394,-0.00040646,-0.000934
 20,-0.00994874,-0.00053298,0.00018747,0.00726281,0.00306023,-0.0155817
 6,-0.00015613,-0.00008761,-0.00008248,0.00001297,0.00006980,-0.0000087
 2,-0.00001968,-0.00002392,0.00004378,0.00001209,0.00023438,-0.00011743
 ,0.00080528,-0.00033863,-0.00057353,0.00002358,0.00016229,-0.00006510,
 0.00003809,0.00000655,-0.00004129,-0.00001899,0.00000951,0.00001284,-0
 .00074866,0.00163681,-0.00056111,-0.00062535,-0.00155423,-0.00243682,0
 .00493221,0.00396548,-0.00834666,0.10399377,0.00049305,0.00063956,-0.0
 0015332,-0.00001610,-0.00006233,0.00003125,-0.00000505,0.00001659,-0.0
 0002795,-0.00034704,0.00011982,-0.00024811,0.00333343,0.00022752,-0.00
 199782,-0.04175621,-0.08420887,0.08572567,-0.00008104,-0.00010822,0.00
 013801,-0.00019333,-0.00003343,-0.00000655,-0.00012216,0.00011842,0.00
 001689,0.00028361,-0.00032658,0.00025961,-0.00076646,0.00051725,0.0002
 9435,0.00878616,0.00712257,-0.02516646,-0.00001620,-0.00003253,-0.0000
 3224,-0.00002000,0.00000601,0.00001003,0.00007267,0.00004777,-0.000011
 28,-0.00019735,0.00005209,-0.00000069,-0.00024503,-0.00003383,0.000133
 83,0.00002420,0.00004020,-0.00001297,0.00000541,-0.00000352,-0.0000164
 5,0.00001846,-0.00001087,0.00001989,0.00103556,-0.00089223,0.00046962,
 -0.00126066,-0.00174215,-0.00431641,-0.01323567,-0.00849914,0.02392293
 ,0.04420978,0.08704592,-0.00013166,0.00005030,0.00030872,-0.00006121,-
 0.00000194,-0.00000405,-0.00015145,-0.00017104,0.00000429,0.00069422,0
 .00061559,-0.00090004,0.00118106,-0.00048286,0.00226668,0.09317690,0.0
 7698604,-0.23422658,-0.00011244,-0.00008000,0.00002833,0.00005015,0.00
 001975,0.00002236,0.00010144,-0.00010381,-0.00000113,-0.00120383,0.000
 72460,-0.00003570,-0.00163755,0.00042401,0.00133018,0.00822955,0.00214
 246,-0.03168469,0.00001745,-0.00001650,-0.00002363,0.00000486,-0.00000
 097,0.00000621,-0.00000196,-0.00000440,-0.00000249,0.00007507,-0.00004
 326,0.00001425,0.00090051,-0.00023296,0.00009891,-0.00001554,-0.000008
 96,0.00000297,0.00000189,-0.00000045,0.00000283,0.00000690,0.00000242,
 -0.00001932,-0.00018430,-0.00003265,0.00046206,-0.00279844,-0.00315423
 ,-0.00176617,0.00284293,0.00240069,-0.00300380,-0.10098457,-0.07903182
 ,0.26711980\\0.00000225,-0.00000246,0.00000747,0.00000081,0.00000219,0
 .00001271,0.00001567,0.00002571,-0.00000475,0.00000512,-0.00000605,-0.
 00000835,-0.00000058,-0.00000590,0.00000091,-0.00000196,-0.00000918,-0
 .00000074,-0.00000119,0.00000573,0.00000359,0.00000296,0.00000557,0.00
 001865,0.00000134,0.00001166,0.00000567,-0.00000238,-0.00001317,-0.000
 00352,-0.00000802,0.00000227,-0.00000364,0.00000087,-0.00000781,-0.000
 00707,-0.00001559,0.00000631,0.00000684,-0.00000417,0.00000534,0.00000
 082,-0.00000678,0.00000231,-0.00001193,0.00001002,-0.00000148,-0.00000
 903,-0.00000329,-0.00000363,-0.00000134,-0.00000249,0.00000795,0.00000
 734,-0.00000432,0.00000693,0.00000834,0.00001439,0.00000462,-0.0000018
 2,0.00000126,-0.00000675,-0.00000656,0.00000488,-0.00000748,-0.0000048
 5,-0.00000610,-0.00001009,-0.00000293,-0.00000270,-0.00001263,-0.00000
 583\\\@


 A MAN IS NEVER SO BRILLIANT AS WHEN HE TAKES THE WORDS RIGHT OUT
 OF YOUR MOUTH. -- ARNOT SHEPPARD, JR.
 Job cpu time:  0 days  7 hours 13 minutes 12.2 seconds.
 File lengths (MBytes):  RWF=    461 Int=      0 D2E=      0 Chk=     20 Scr=      1
 Normal termination of Gaussian 09 at Fri Dec 16 12:49:08 2011.
