 Entering Gaussian System, Link 0=g09
 Initial command:
 /projects/nrel/apps/gaussian/g09/B.01/g09/l1.exe /scratch/hbmayes/nag_e2_442relaxrelaxtsb3lyptsb3ltstircropt.2292321.scr/Gau-4317.inp -scrdir=/scratch/hbmayes/nag_e2_442relaxrelaxtsb3lyptsb3ltstircropt.2292321.scr/
 Default is to use a total of   8 processors:
                                8 via shared-memory
                                1 via Linda
 Entering Link 1 = /projects/nrel/apps/gaussian/g09/B.01/g09/l1.exe PID=      4318.
  
 Copyright (c) 1988,1990,1992,1993,1995,1998,2003,2009,2010,
            Gaussian, Inc.  All Rights Reserved.
  
 This is part of the Gaussian(R) 09 program.  It is based on
 the Gaussian(R) 03 system (copyright 2003, Gaussian, Inc.),
 the Gaussian(R) 98 system (copyright 1998, Gaussian, Inc.),
 the Gaussian(R) 94 system (copyright 1995, Gaussian, Inc.),
 the Gaussian 92(TM) system (copyright 1992, Gaussian, Inc.),
 the Gaussian 90(TM) system (copyright 1990, Gaussian, Inc.),
 the Gaussian 88(TM) system (copyright 1988, Gaussian, Inc.),
 the Gaussian 86(TM) system (copyright 1986, Carnegie Mellon
 University), and the Gaussian 82(TM) system (copyright 1983,
 Carnegie Mellon University). Gaussian is a federally registered
 trademark of Gaussian, Inc.
  
 This software contains proprietary and confidential information,
 including trade secrets, belonging to Gaussian, Inc.
  
 This software is provided under written license and may be
 used, copied, transmitted, or stored only in accord with that
 written license.
  
 The following legend is applicable only to US Government
 contracts under FAR:
  
                    RESTRICTED RIGHTS LEGEND
  
 Use, reproduction and disclosure by the US Government is
 subject to restrictions as set forth in subparagraphs (a)
 and (c) of the Commercial Computer Software - Restricted
 Rights clause in FAR 52.227-19.
  
 Gaussian, Inc.
 340 Quinnipiac St., Bldg. 40, Wallingford CT 06492
  
  
 ---------------------------------------------------------------
 Warning -- This program may not be used in any manner that
 competes with the business of Gaussian, Inc. or will provide
 assistance to any competitor of Gaussian, Inc.  The licensee
 of this program is prohibited from giving any competitor of
 Gaussian, Inc. access to this program.  By using this program,
 the user acknowledges that Gaussian, Inc. is engaged in the
 business of creating and licensing software in the field of
 computational chemistry and represents and warrants to the
 licensee that it is not a competitor of Gaussian, Inc. and that
 it will not use this program in any manner prohibited above.
 ---------------------------------------------------------------
  

 Cite this work as:
 Gaussian 09, Revision B.01,
 M. J. Frisch, G. W. Trucks, H. B. Schlegel, G. E. Scuseria, 
 M. A. Robb, J. R. Cheeseman, G. Scalmani, V. Barone, B. Mennucci, 
 G. A. Petersson, H. Nakatsuji, M. Caricato, X. Li, H. P. Hratchian, 
 A. F. Izmaylov, J. Bloino, G. Zheng, J. L. Sonnenberg, M. Hada, 
 M. Ehara, K. Toyota, R. Fukuda, J. Hasegawa, M. Ishida, T. Nakajima, 
 Y. Honda, O. Kitao, H. Nakai, T. Vreven, J. A. Montgomery, Jr., 
 J. E. Peralta, F. Ogliaro, M. Bearpark, J. J. Heyd, E. Brothers, 
 K. N. Kudin, V. N. Staroverov, T. Keith, R. Kobayashi, J. Normand, 
 K. Raghavachari, A. Rendell, J. C. Burant, S. S. Iyengar, J. Tomasi, 
 M. Cossi, N. Rega, J. M. Millam, M. Klene, J. E. Knox, J. B. Cross, 
 V. Bakken, C. Adamo, J. Jaramillo, R. Gomperts, R. E. Stratmann, 
 O. Yazyev, A. J. Austin, R. Cammi, C. Pomelli, J. W. Ochterski, 
 R. L. Martin, K. Morokuma, V. G. Zakrzewski, G. A. Voth, 
 P. Salvador, J. J. Dannenberg, S. Dapprich, A. D. Daniels, 
 O. Farkas, J. B. Foresman, J. V. Ortiz, J. Cioslowski, 
 and D. J. Fox, Gaussian, Inc., Wallingford CT, 2010.
 
 ******************************************
 Gaussian 09:  EM64L-G09RevB.01 12-Aug-2010
                22-Dec-2012 
 ******************************************
 %RWF=/dev/shm/,2GB,/scratch/hbmayes/nag_e2_442relaxrelaxtsb3lyptsb3ltstircropt.2
 292321.scr/,-1
 %NoSave
 %CHK=/scratch/hbmayes/nag/nag_e2_442relaxrelaxtsb3lyptsb3ltstircropt.chk
 %mem=10GB
 %nproc=8
 Will use up to    8 processors via shared memory.
 Default route:  MaxDisk=16GB
 ----------------------------------------------------------------------
 # opt=(Tight) Freq b3lyp/6-311+G(2df,p) nosymm Int=(Grid=Ultrafine) sc
 f=xqc
 ----------------------------------------------------------------------
 1/7=10,14=-1,18=20,19=15,26=3,38=1/1,3;
 2/9=110,12=2,15=1,17=6,18=5,40=1/2;
 3/5=4,6=6,7=114,11=2,16=1,25=1,30=1,71=1,74=-5,75=-5/1,2,3;
 4//1;
 5/5=2,8=3,13=1,38=5/2,8;
 6/7=2,8=2,9=2,10=2,28=1/1;
 7/30=1/1,2,3,16;
 1/7=10,14=-1,18=20,19=15/3(2);
 2/9=110,15=1/2;
 99//99;
 2/9=110,15=1/2;
 3/5=4,6=6,7=114,11=2,16=1,25=1,30=1,71=1,74=-5,75=-5/1,2,3;
 4/5=5,16=3/1;
 5/5=2,8=3,13=1,38=5/2,8;
 7/30=1/1,2,3,16;
 1/7=10,14=-1,18=20,19=15/3(-5);
 2/9=110,15=1/2;
 6/7=2,8=2,9=2,10=2,19=2,28=1/1;
 99/9=1/99;
 -------------------
 from ircs continued
 -------------------
 Symbolic Z-matrix:
 Charge =  0 Multiplicity = 1
 6                     1.02743  -0.39687  -0.66599 
 1                     1.07273  -0.90482  -1.63142 
 8                     2.22017  -0.71161   0.06661 
 1                     2.1989   -1.64123   0.32399 
 6                     0.69493   1.93887   0.02414 
 1                     0.42864   2.81888  -0.56737 
 8                     1.04084   0.96166  -0.97441 
 6                    -0.24926  -0.84301   0.07588 
 1                    -0.08705  -1.84481   0.47464 
 7                    -1.34772  -0.93836  -0.8714 
 1                    -1.82755  -0.08314  -1.1105 
 6                    -1.57891  -2.07902  -1.58251 
 8                    -0.91497  -3.09182  -1.42604 
 6                    -2.73343  -2.02289  -2.56118 
 1                    -3.15092  -1.02304  -2.68529 
 1                    -3.52006  -2.69363  -2.21036 
 1                    -2.39288  -2.39604  -3.52701 
 6                    -0.61855   0.08891   1.25061 
 1                    -1.65424  -0.13776   1.52215 
 8                     0.14784  -0.16327   2.40569 
 1                     0.9719    0.36036   2.37801 
 6                    -0.56435   1.5674    0.81834 
 1                    -0.60304   2.19077   1.71738 
 8                    -1.6833    1.87175  -0.03328 
 1                    -2.47894   1.91718   0.50765 
 6                     1.90098   2.35431   0.86913 
 1                     2.70409   2.64717   0.18515 
 1                     1.62437   3.23067   1.45994 
 8                     2.36988   1.37825   1.78925 
 1                     2.67083   0.61233   1.2663 
 

 GradGradGradGradGradGradGradGradGradGradGradGradGradGradGradGradGradGrad
 Berny optimization.
 Initialization pass.
                           ----------------------------
                           !    Initial Parameters    !
                           ! (Angstroms and Degrees)  !
 --------------------------                            --------------------------
 ! Name  Definition              Value          Derivative Info.                !
 --------------------------------------------------------------------------------
 ! R1    R(1,2)                  1.0918         estimate D2E/DX2                !
 ! R2    R(1,3)                  1.4347         estimate D2E/DX2                !
 ! R3    R(1,7)                  1.3932         estimate D2E/DX2                !
 ! R4    R(1,8)                  1.5425         estimate D2E/DX2                !
 ! R5    R(3,4)                  0.9648         estimate D2E/DX2                !
 ! R6    R(3,30)                 1.8426         estimate D2E/DX2                !
 ! R7    R(5,6)                  1.0933         estimate D2E/DX2                !
 ! R8    R(5,7)                  1.4393         estimate D2E/DX2                !
 ! R9    R(5,22)                 1.5344         estimate D2E/DX2                !
 ! R10   R(5,26)                 1.5301         estimate D2E/DX2                !
 ! R11   R(8,9)                  1.0904         estimate D2E/DX2                !
 ! R12   R(8,10)                 1.4536         estimate D2E/DX2                !
 ! R13   R(8,18)                 1.5443         estimate D2E/DX2                !
 ! R14   R(10,11)                1.0094         estimate D2E/DX2                !
 ! R15   R(10,12)                1.3639         estimate D2E/DX2                !
 ! R16   R(12,13)                1.2211         estimate D2E/DX2                !
 ! R17   R(12,14)                1.5145         estimate D2E/DX2                !
 ! R18   R(14,15)                1.0906         estimate D2E/DX2                !
 ! R19   R(14,16)                1.0917         estimate D2E/DX2                !
 ! R20   R(14,17)                1.09           estimate D2E/DX2                !
 ! R21   R(18,19)                1.0944         estimate D2E/DX2                !
 ! R22   R(18,20)                1.4089         estimate D2E/DX2                !
 ! R23   R(18,22)                1.5413         estimate D2E/DX2                !
 ! R24   R(20,21)                0.9767         estimate D2E/DX2                !
 ! R25   R(21,29)                1.8268         estimate D2E/DX2                !
 ! R26   R(22,23)                1.0947         estimate D2E/DX2                !
 ! R27   R(22,24)                1.4387         estimate D2E/DX2                !
 ! R28   R(24,25)                0.9632         estimate D2E/DX2                !
 ! R29   R(26,27)                1.0948         estimate D2E/DX2                !
 ! R30   R(26,28)                1.0925         estimate D2E/DX2                !
 ! R31   R(26,29)                1.421          estimate D2E/DX2                !
 ! R32   R(29,30)                0.975          estimate D2E/DX2                !
 ! A1    A(2,1,3)              108.3587         estimate D2E/DX2                !
 ! A2    A(2,1,7)              104.9218         estimate D2E/DX2                !
 ! A3    A(2,1,8)              108.9685         estimate D2E/DX2                !
 ! A4    A(3,1,7)              108.6002         estimate D2E/DX2                !
 ! A5    A(3,1,8)              112.2744         estimate D2E/DX2                !
 ! A6    A(7,1,8)              113.3581         estimate D2E/DX2                !
 ! A7    A(1,3,4)              109.224          estimate D2E/DX2                !
 ! A8    A(6,5,7)              103.2779         estimate D2E/DX2                !
 ! A9    A(6,5,22)             105.9629         estimate D2E/DX2                !
 ! A10   A(6,5,26)             105.7975         estimate D2E/DX2                !
 ! A11   A(7,5,22)             113.0753         estimate D2E/DX2                !
 ! A12   A(7,5,26)             112.2122         estimate D2E/DX2                !
 ! A13   A(22,5,26)            115.2626         estimate D2E/DX2                !
 ! A14   A(1,7,5)              120.4079         estimate D2E/DX2                !
 ! A15   A(1,8,9)              108.5712         estimate D2E/DX2                !
 ! A16   A(1,8,10)             109.329          estimate D2E/DX2                !
 ! A17   A(1,8,18)             112.9068         estimate D2E/DX2                !
 ! A18   A(9,8,10)             106.8863         estimate D2E/DX2                !
 ! A19   A(9,8,18)             108.1693         estimate D2E/DX2                !
 ! A20   A(10,8,18)            110.7691         estimate D2E/DX2                !
 ! A21   A(8,10,11)            117.2589         estimate D2E/DX2                !
 ! A22   A(8,10,12)            121.5145         estimate D2E/DX2                !
 ! A23   A(11,10,12)           120.2999         estimate D2E/DX2                !
 ! A24   A(10,12,13)           122.3226         estimate D2E/DX2                !
 ! A25   A(10,12,14)           115.7931         estimate D2E/DX2                !
 ! A26   A(13,12,14)           121.8716         estimate D2E/DX2                !
 ! A27   A(12,14,15)           113.536          estimate D2E/DX2                !
 ! A28   A(12,14,16)           108.5939         estimate D2E/DX2                !
 ! A29   A(12,14,17)           108.7675         estimate D2E/DX2                !
 ! A30   A(15,14,16)           108.906          estimate D2E/DX2                !
 ! A31   A(15,14,17)           109.4277         estimate D2E/DX2                !
 ! A32   A(16,14,17)           107.4309         estimate D2E/DX2                !
 ! A33   A(8,18,19)            106.8606         estimate D2E/DX2                !
 ! A34   A(8,18,20)            112.6773         estimate D2E/DX2                !
 ! A35   A(8,18,22)            110.9229         estimate D2E/DX2                !
 ! A36   A(19,18,20)           105.9184         estimate D2E/DX2                !
 ! A37   A(19,18,22)           107.5496         estimate D2E/DX2                !
 ! A38   A(20,18,22)           112.4874         estimate D2E/DX2                !
 ! A39   A(18,20,21)           109.8605         estimate D2E/DX2                !
 ! A40   A(5,22,18)            113.9685         estimate D2E/DX2                !
 ! A41   A(5,22,23)            108.4345         estimate D2E/DX2                !
 ! A42   A(5,22,24)            106.3009         estimate D2E/DX2                !
 ! A43   A(18,22,23)           108.3407         estimate D2E/DX2                !
 ! A44   A(18,22,24)           109.9729         estimate D2E/DX2                !
 ! A45   A(23,22,24)           109.7655         estimate D2E/DX2                !
 ! A46   A(22,24,25)           108.6627         estimate D2E/DX2                !
 ! A47   A(5,26,27)            107.8079         estimate D2E/DX2                !
 ! A48   A(5,26,28)            108.4743         estimate D2E/DX2                !
 ! A49   A(5,26,29)            115.5436         estimate D2E/DX2                !
 ! A50   A(27,26,28)           107.9992         estimate D2E/DX2                !
 ! A51   A(27,26,29)           110.2561         estimate D2E/DX2                !
 ! A52   A(28,26,29)           106.5217         estimate D2E/DX2                !
 ! A53   A(26,29,30)           107.1057         estimate D2E/DX2                !
 ! D1    D(2,1,3,4)            -69.4105         estimate D2E/DX2                !
 ! D2    D(7,1,3,4)            177.1398         estimate D2E/DX2                !
 ! D3    D(8,1,3,4)             50.9891         estimate D2E/DX2                !
 ! D4    D(2,1,7,5)            166.0897         estimate D2E/DX2                !
 ! D5    D(3,1,7,5)            -78.2138         estimate D2E/DX2                !
 ! D6    D(8,1,7,5)             47.3056         estimate D2E/DX2                !
 ! D7    D(2,1,8,9)             76.2054         estimate D2E/DX2                !
 ! D8    D(2,1,8,10)           -40.0634         estimate D2E/DX2                !
 ! D9    D(2,1,8,18)          -163.855          estimate D2E/DX2                !
 ! D10   D(3,1,8,9)            -43.8406         estimate D2E/DX2                !
 ! D11   D(3,1,8,10)          -160.1094         estimate D2E/DX2                !
 ! D12   D(3,1,8,18)            76.099          estimate D2E/DX2                !
 ! D13   D(7,1,8,9)           -167.3691         estimate D2E/DX2                !
 ! D14   D(7,1,8,10)            76.3621         estimate D2E/DX2                !
 ! D15   D(7,1,8,18)           -47.4295         estimate D2E/DX2                !
 ! D16   D(6,5,7,1)           -159.4772         estimate D2E/DX2                !
 ! D17   D(22,5,7,1)           -45.4181         estimate D2E/DX2                !
 ! D18   D(26,5,7,1)            87.0385         estimate D2E/DX2                !
 ! D19   D(6,5,22,18)          156.1595         estimate D2E/DX2                !
 ! D20   D(6,5,22,23)          -83.0984         estimate D2E/DX2                !
 ! D21   D(6,5,22,24)           34.8625         estimate D2E/DX2                !
 ! D22   D(7,5,22,18)           43.7314         estimate D2E/DX2                !
 ! D23   D(7,5,22,23)          164.4735         estimate D2E/DX2                !
 ! D24   D(7,5,22,24)          -77.5656         estimate D2E/DX2                !
 ! D25   D(26,5,22,18)         -87.2195         estimate D2E/DX2                !
 ! D26   D(26,5,22,23)          33.5226         estimate D2E/DX2                !
 ! D27   D(26,5,22,24)         151.4835         estimate D2E/DX2                !
 ! D28   D(6,5,26,27)          -60.0099         estimate D2E/DX2                !
 ! D29   D(6,5,26,28)           56.702          estimate D2E/DX2                !
 ! D30   D(6,5,26,29)          176.1728         estimate D2E/DX2                !
 ! D31   D(7,5,26,27)           51.9125         estimate D2E/DX2                !
 ! D32   D(7,5,26,28)          168.6245         estimate D2E/DX2                !
 ! D33   D(7,5,26,29)          -71.9047         estimate D2E/DX2                !
 ! D34   D(22,5,26,27)        -176.7246         estimate D2E/DX2                !
 ! D35   D(22,5,26,28)         -60.0126         estimate D2E/DX2                !
 ! D36   D(22,5,26,29)          59.4581         estimate D2E/DX2                !
 ! D37   D(1,8,10,11)          -81.9735         estimate D2E/DX2                !
 ! D38   D(1,8,10,12)           87.0366         estimate D2E/DX2                !
 ! D39   D(9,8,10,11)          160.6914         estimate D2E/DX2                !
 ! D40   D(9,8,10,12)          -30.2985         estimate D2E/DX2                !
 ! D41   D(18,8,10,11)          43.0685         estimate D2E/DX2                !
 ! D42   D(18,8,10,12)        -147.9214         estimate D2E/DX2                !
 ! D43   D(1,8,18,19)          164.5259         estimate D2E/DX2                !
 ! D44   D(1,8,18,20)          -79.5464         estimate D2E/DX2                !
 ! D45   D(1,8,18,22)           47.5775         estimate D2E/DX2                !
 ! D46   D(9,8,18,19)          -75.3038         estimate D2E/DX2                !
 ! D47   D(9,8,18,20)           40.6239         estimate D2E/DX2                !
 ! D48   D(9,8,18,22)          167.7478         estimate D2E/DX2                !
 ! D49   D(10,8,18,19)          41.5316         estimate D2E/DX2                !
 ! D50   D(10,8,18,20)         157.4593         estimate D2E/DX2                !
 ! D51   D(10,8,18,22)         -75.4168         estimate D2E/DX2                !
 ! D52   D(8,10,12,13)           2.9423         estimate D2E/DX2                !
 ! D53   D(8,10,12,14)        -178.3342         estimate D2E/DX2                !
 ! D54   D(11,10,12,13)        171.6229         estimate D2E/DX2                !
 ! D55   D(11,10,12,14)         -9.6535         estimate D2E/DX2                !
 ! D56   D(10,12,14,15)          8.5658         estimate D2E/DX2                !
 ! D57   D(10,12,14,16)       -112.727          estimate D2E/DX2                !
 ! D58   D(10,12,14,17)        130.6503         estimate D2E/DX2                !
 ! D59   D(13,12,14,15)       -172.7044         estimate D2E/DX2                !
 ! D60   D(13,12,14,16)         66.0028         estimate D2E/DX2                !
 ! D61   D(13,12,14,17)        -50.6199         estimate D2E/DX2                !
 ! D62   D(8,18,20,21)          87.9684         estimate D2E/DX2                !
 ! D63   D(19,18,20,21)       -155.5409         estimate D2E/DX2                !
 ! D64   D(22,18,20,21)        -38.3201         estimate D2E/DX2                !
 ! D65   D(8,18,22,5)          -46.3685         estimate D2E/DX2                !
 ! D66   D(8,18,22,23)        -167.1629         estimate D2E/DX2                !
 ! D67   D(8,18,22,24)          72.8669         estimate D2E/DX2                !
 ! D68   D(19,18,22,5)        -162.8934         estimate D2E/DX2                !
 ! D69   D(19,18,22,23)         76.3122         estimate D2E/DX2                !
 ! D70   D(19,18,22,24)        -43.658          estimate D2E/DX2                !
 ! D71   D(20,18,22,5)          80.8595         estimate D2E/DX2                !
 ! D72   D(20,18,22,23)        -39.9349         estimate D2E/DX2                !
 ! D73   D(20,18,22,24)       -159.9051         estimate D2E/DX2                !
 ! D74   D(5,22,24,25)        -162.5247         estimate D2E/DX2                !
 ! D75   D(18,22,24,25)         73.6532         estimate D2E/DX2                !
 ! D76   D(23,22,24,25)        -45.4485         estimate D2E/DX2                !
 ! D77   D(5,26,29,30)          62.8864         estimate D2E/DX2                !
 ! D78   D(27,26,29,30)        -59.6388         estimate D2E/DX2                !
 ! D79   D(28,26,29,30)       -176.5768         estimate D2E/DX2                !
 --------------------------------------------------------------------------------
 Trust Radius=3.00D-01 FncErr=1.00D-07 GrdErr=1.00D-06
 Number of steps in this run=    174 maximum allowed number of steps=    180.
 GradGradGradGradGradGradGradGradGradGradGradGradGradGradGradGradGradGrad

                          Input orientation:                          
 ---------------------------------------------------------------------
 Center     Atomic      Atomic             Coordinates (Angstroms)
 Number     Number       Type             X           Y           Z
 ---------------------------------------------------------------------
      1          6           0        1.027432   -0.396872   -0.665990
      2          1           0        1.072727   -0.904815   -1.631422
      3          8           0        2.220166   -0.711610    0.066611
      4          1           0        2.198902   -1.641230    0.323985
      5          6           0        0.694931    1.938871    0.024141
      6          1           0        0.428642    2.818877   -0.567372
      7          8           0        1.040842    0.961659   -0.974412
      8          6           0       -0.249264   -0.843010    0.075883
      9          1           0       -0.087047   -1.844806    0.474640
     10          7           0       -1.347721   -0.938362   -0.871402
     11          1           0       -1.827548   -0.083140   -1.110496
     12          6           0       -1.578913   -2.079023   -1.582512
     13          8           0       -0.914969   -3.091822   -1.426041
     14          6           0       -2.733432   -2.022894   -2.561177
     15          1           0       -3.150924   -1.023039   -2.685294
     16          1           0       -3.520060   -2.693626   -2.210357
     17          1           0       -2.392884   -2.396040   -3.527012
     18          6           0       -0.618545    0.088913    1.250610
     19          1           0       -1.654237   -0.137760    1.522153
     20          8           0        0.147838   -0.163274    2.405685
     21          1           0        0.971902    0.360355    2.378013
     22          6           0       -0.564345    1.567395    0.818342
     23          1           0       -0.603041    2.190775    1.717376
     24          8           0       -1.683297    1.871749   -0.033282
     25          1           0       -2.478938    1.917178    0.507652
     26          6           0        1.900976    2.354310    0.869132
     27          1           0        2.704089    2.647167    0.185154
     28          1           0        1.624372    3.230674    1.459935
     29          8           0        2.369880    1.378246    1.789250
     30          1           0        2.670831    0.612333    1.266300
 ---------------------------------------------------------------------
                    Distance matrix (angstroms):
                    1          2          3          4          5
     1  C    0.000000
     2  H    1.091841   0.000000
     3  O    1.434705   2.058461   0.000000
     4  H    1.975049   2.373646   0.964825   0.000000
     5  C    2.458156   3.312125   3.058299   3.894735   0.000000
     6  H    3.272509   3.925930   4.009468   4.880665   1.093256
     7  O    1.393166   1.978991   2.296598   3.130810   1.439342
     8  C    1.542520   2.160178   2.472941   2.586934   2.938204
     9  H    2.153976   2.581503   2.602663   2.299935   3.889814
    10  N    2.444741   2.537188   3.696093   3.808085   3.640452
    11  H    2.906359   3.059103   4.261988   4.549470   3.426198
    12  C    3.234606   2.900405   4.361471   4.254207   4.888269
    13  O    3.407837   2.962451   4.209809   3.855256   5.477470
    14  C    4.514397   4.074480   5.758721   5.726932   5.842356
    15  H    4.682770   4.354750   6.043060   6.169162   5.559186
    16  H    5.323517   4.962731   6.485612   6.343260   6.649749
    17  H    4.886786   4.222259   6.085364   6.040233   6.398183
    18  C    2.572661   3.486259   3.178202   3.433662   2.579106
    19  H    3.470801   4.239073   4.178385   4.306125   3.474914
    20  O    3.203661   4.207557   3.172772   3.274858   3.223364
    21  H    3.137265   4.205519   2.837226   3.119439   2.847655
    22  C    2.931781   3.846189   3.675930   4.263238   1.534446
    23  H    3.877472   4.858531   4.372569   4.947392   2.148309
    24  O    3.590963   4.225994   4.681960   5.247869   2.379868
    25  H    4.361983   5.015337   5.402464   5.880322   3.210560
    26  C    3.269355   4.190544   3.185245   4.043549   1.530080
    27  H    3.577960   4.310205   3.395529   4.320282   2.136428
    28  H    4.246762   5.192598   4.223497   5.035466   2.143390
    29  O    3.313822   4.312305   2.712452   3.360576   2.497071
    30  H    2.730018   3.640394   1.842601   2.487814   2.684556
                    6          7          8          9         10
     6  H    0.000000
     7  O    1.997431   0.000000
     8  C    3.779253   2.454450   0.000000
     9  H    4.806419   3.353823   1.090375   0.000000
    10  N    4.167103   3.053838   1.453633   2.054938   0.000000
    11  H    3.715788   3.055779   2.115627   2.940317   1.009358
    12  C    5.389825   4.059390   2.458855   2.551940   1.363904
    13  O    6.122007   4.523259   2.784977   2.419316   2.265456
    14  C    6.116921   5.066609   3.810158   4.031284   2.439620
    15  H    5.662085   4.943384   4.009506   4.477480   2.559085
    16  H    6.977058   5.974152   4.398838   4.440189   3.097226
    17  H    6.626903   5.438785   4.470779   4.651232   3.204599
    18  C    3.443016   2.909635   1.544290   2.150323   2.467778
    19  H    4.176865   3.834711   2.136123   2.543103   2.542444
    20  O    4.220325   3.672599   2.459209   2.571314   3.684665
    21  H    3.874888   3.406622   2.870390   3.099506   4.198335
    22  C    2.114813   2.481433   2.541766   3.462522   3.122136
    23  H    2.584367   3.385085   3.467493   4.254005   4.128900
    24  O    2.375414   3.022403   3.072179   4.076614   2.951572
    25  H    3.228430   3.936798   3.574424   4.458111   3.366831
    26  C    2.108823   2.465352   3.933908   4.662664   4.942184
    27  H    2.402798   2.636650   4.573354   5.296420   5.512667
    28  H    2.389418   3.378606   4.692655   5.446123   5.625774
    29  O    3.376017   3.094788   3.837906   4.260605   5.125066
    30  H    3.641236   2.792791   3.473049   3.777585   4.808657
                   11         12         13         14         15
    11  H    0.000000
    12  C    2.065954   0.000000
    13  O    3.159832   1.221092   0.000000
    14  C    2.586068   1.514546   2.395402   0.000000
    15  H    2.261575   2.191449   3.296221   1.090603   0.000000
    16  H    3.299838   2.130722   2.749584   1.091668   1.775581
    17  H    3.392442   2.131696   2.661282   1.089976   1.779957
    18  C    2.658216   3.694433   4.167662   4.843779   4.810480
    19  H    2.638913   3.662393   4.238496   4.625146   4.552626
    20  O    4.033869   4.749471   4.938429   6.035696   6.126916
    21  H    4.494808   5.304996   5.472535   6.618533   6.674470
    22  C    2.835553   4.482166   5.183483   5.386675   5.067169
    23  H    3.829748   5.483864   6.155014   6.371781   6.016960
    24  O    2.236692   4.244951   5.212211   4.760387   4.191288
    25  H    2.654050   4.598745   5.592428   5.000665   4.392191
    26  C    4.874626   6.146107   6.546581   7.239107   7.040037
    27  H    5.446927   6.618582   6.973487   7.675835   7.482717
    28  H    5.431780   6.907272   7.399396   7.922107   7.621053
    29  O    5.306843   6.238145   6.411695   7.519160   7.501133
    30  H    5.135003   5.780956   5.816135   7.127416   7.223736
                   16         17         18         19         20
    16  H    0.000000
    17  H    1.758597   0.000000
    18  C    5.304678   5.670004   0.000000
    19  H    4.893401   5.580277   1.094429   0.000000
    20  O    6.415918   6.829159   1.408950   2.007176   0.000000
    21  H    7.110391   7.334086   1.968309   2.806639   0.976747
    22  C    6.005462   6.159097   1.541331   2.142608   2.453992
    23  H    6.913281   7.193470   2.153122   2.562265   2.564983
    24  O    5.381078   5.560907   2.441430   2.541328   3.666461
    25  H    5.452616   5.906756   2.712121   2.435593   3.851073
    26  C    8.022004   7.767184   3.409624   4.390488   3.431139
    27  H    8.544154   8.074234   4.326633   5.342133   4.400427
    28  H    8.662191   8.524547   3.865897   4.701010   3.820141
    29  O    8.201731   8.074144   3.298969   4.308495   2.773760
    30  H    7.832218   7.593903   3.330797   4.397080   2.874936
                   21         22         23         24         25
    21  H    0.000000
    22  C    2.499915   0.000000
    23  H    2.503462   1.094697   0.000000
    24  O    3.892138   1.438732   2.081714   0.000000
    25  H    4.222587   1.970924   2.248839   0.963181   0.000000
    26  C    2.667538   2.588363   2.648842   3.727496   4.416492
    27  H    3.610902   3.499928   3.673296   4.460733   5.244107
    28  H    3.083394   2.822875   2.471646   3.875184   4.412399
    29  O    1.826769   3.096468   3.082796   4.471399   5.044202
    30  H    2.045913   3.402818   3.662402   4.715238   5.366404
                   26         27         28         29         30
    26  C    0.000000
    27  H    1.094798   0.000000
    28  H    1.092507   1.769558   0.000000
    29  O    1.420982   2.072433   2.023789   0.000000
    30  H    1.945483   2.304459   2.826355   0.975024   0.000000
 Symmetry turned off by external request.
 Stoichiometry    C8H15NO6
 Framework group  C1[X(C8H15NO6)]
 Deg. of freedom    84
 Full point group                 C1      NOp   1
 Rotational constants (GHZ):      1.0191303      0.4232003      0.3822080
 Standard basis: 6-311+G(2df,p) (5D, 7F)
 Integral buffers will be    131072 words long.
 Raffenetti 2 integral format.
 Two-electron integral symmetry is turned off.
   600 basis functions,   900 primitive gaussians,   675 cartesian basis functions
    59 alpha electrons       59 beta electrons
       nuclear repulsion energy      1180.9987420488 Hartrees.
 NAtoms=   30 NActive=   30 NUniq=   30 SFac= 1.00D+00 NAtFMM=   50 NAOKFM=F Big=F
 One-electron integrals computed using PRISM.
 NBasis=   600 RedAO= T  NBF=   600
 NBsUse=   600 1.00D-06 NBFU=   600
 Harris functional with IExCor=  402 diagonalized for initial guess.
 ExpMin= 4.38D-02 ExpMax= 8.59D+03 ExpMxC= 1.30D+03 IAcc=3 IRadAn=         5 AccDes= 0.00D+00
 HarFok:  IExCor=  402 AccDes= 0.00D+00 IRadAn=         5 IDoV= 1
 ScaDFX=  1.000000  1.000000  1.000000  1.000000
 FoFCou: FMM=F IPFlag=           0 FMFlag=      100000 FMFlg1=           0
         NFxFlg=           0 DoJE=T BraDBF=F KetDBF=T FulRan=T
         Omega=  0.000000  0.000000  1.000000  0.000000  0.000000 ICntrl=     500 IOpCl=  0
         NMat0=    1 NMatS0=    1 NMatT0=    0 NMatD0=    1 NMtDS0=    0 NMtDT0=    0
         I1Cent=           4 NGrid=           0.
 Symmetry not used in FoFCou.
 Requested convergence on RMS density matrix=1.00D-08 within  64 cycles.
 Requested convergence on MAX density matrix=1.00D-06.
 Requested convergence on             energy=1.00D-06.
 No special actions if energy rises.
 SCF Done:  E(RB3LYP) =  -820.266945576     A.U. after   14 cycles
             Convg  =    0.2157D-08             -V/T =  2.0038
 QCSCF skips out because SCF is already converged.

 **********************************************************************

            Population analysis using the SCF density.

 **********************************************************************

 Alpha  occ. eigenvalues --  -19.15857 -19.15661 -19.15410 -19.13899 -19.12275
 Alpha  occ. eigenvalues --  -19.09154 -14.34473 -10.29061 -10.27821 -10.25103
 Alpha  occ. eigenvalues --  -10.24648 -10.24244 -10.23453 -10.22382 -10.18000
 Alpha  occ. eigenvalues --   -1.09644  -1.05998  -1.04520  -1.04364  -1.03164
 Alpha  occ. eigenvalues --   -1.02754  -0.93638  -0.80627  -0.79217  -0.74094
 Alpha  occ. eigenvalues --   -0.70986  -0.67891  -0.65871  -0.60402  -0.58559
 Alpha  occ. eigenvalues --   -0.55917  -0.55322  -0.54784  -0.52452  -0.51865
 Alpha  occ. eigenvalues --   -0.50214  -0.49461  -0.48026  -0.46878  -0.45458
 Alpha  occ. eigenvalues --   -0.44988  -0.43555  -0.42070  -0.41889  -0.41007
 Alpha  occ. eigenvalues --   -0.40648  -0.40143  -0.39028  -0.37582  -0.37223
 Alpha  occ. eigenvalues --   -0.36040  -0.33624  -0.32649  -0.32270  -0.30339
 Alpha  occ. eigenvalues --   -0.29235  -0.28542  -0.26835  -0.25983
 Alpha virt. eigenvalues --   -0.02116  -0.00288   0.00371   0.00773   0.00876
 Alpha virt. eigenvalues --    0.02378   0.02879   0.03410   0.03610   0.04547
 Alpha virt. eigenvalues --    0.05008   0.05921   0.06103   0.06743   0.07145
 Alpha virt. eigenvalues --    0.07992   0.08181   0.08992   0.09247   0.10116
 Alpha virt. eigenvalues --    0.10182   0.11398   0.11564   0.12381   0.12706
 Alpha virt. eigenvalues --    0.12884   0.13342   0.13562   0.14455   0.14816
 Alpha virt. eigenvalues --    0.15162   0.15915   0.16226   0.16710   0.17179
 Alpha virt. eigenvalues --    0.17522   0.18029   0.18201   0.18425   0.19424
 Alpha virt. eigenvalues --    0.19618   0.20124   0.20380   0.20683   0.21245
 Alpha virt. eigenvalues --    0.21851   0.22038   0.22568   0.22767   0.22934
 Alpha virt. eigenvalues --    0.23107   0.23688   0.23831   0.24458   0.25218
 Alpha virt. eigenvalues --    0.25445   0.26015   0.26054   0.26443   0.27379
 Alpha virt. eigenvalues --    0.28153   0.28799   0.29726   0.29957   0.30034
 Alpha virt. eigenvalues --    0.30701   0.31169   0.31448   0.32180   0.32532
 Alpha virt. eigenvalues --    0.32579   0.33058   0.33628   0.33925   0.34196
 Alpha virt. eigenvalues --    0.35101   0.35876   0.36280   0.36539   0.37598
 Alpha virt. eigenvalues --    0.38690   0.39230   0.39864   0.40384   0.42160
 Alpha virt. eigenvalues --    0.42862   0.43275   0.43828   0.44813   0.45368
 Alpha virt. eigenvalues --    0.46134   0.47339   0.47562   0.48390   0.50002
 Alpha virt. eigenvalues --    0.50355   0.51561   0.52666   0.53331   0.54415
 Alpha virt. eigenvalues --    0.54939   0.55565   0.56224   0.57038   0.57688
 Alpha virt. eigenvalues --    0.58267   0.59252   0.60124   0.60653   0.61663
 Alpha virt. eigenvalues --    0.62424   0.62903   0.63163   0.64568   0.65241
 Alpha virt. eigenvalues --    0.66007   0.66300   0.67028   0.67410   0.68090
 Alpha virt. eigenvalues --    0.68266   0.69464   0.70100   0.70672   0.71789
 Alpha virt. eigenvalues --    0.72592   0.73592   0.74265   0.75281   0.76205
 Alpha virt. eigenvalues --    0.76296   0.77642   0.79145   0.81500   0.81980
 Alpha virt. eigenvalues --    0.83465   0.84948   0.86473   0.87308   0.87923
 Alpha virt. eigenvalues --    0.88992   0.91242   0.93214   0.94236   0.96340
 Alpha virt. eigenvalues --    0.97751   0.99622   1.01538   1.02904   1.03653
 Alpha virt. eigenvalues --    1.03899   1.05090   1.05353   1.06551   1.06763
 Alpha virt. eigenvalues --    1.08226   1.09699   1.10175   1.10980   1.12133
 Alpha virt. eigenvalues --    1.12481   1.13776   1.14178   1.14296   1.15312
 Alpha virt. eigenvalues --    1.15869   1.16578   1.17483   1.18845   1.19422
 Alpha virt. eigenvalues --    1.19865   1.20738   1.21399   1.23167   1.24415
 Alpha virt. eigenvalues --    1.24591   1.26065   1.27051   1.27425   1.28564
 Alpha virt. eigenvalues --    1.29166   1.30453   1.31276   1.32687   1.34508
 Alpha virt. eigenvalues --    1.34836   1.35445   1.36278   1.36575   1.38019
 Alpha virt. eigenvalues --    1.38273   1.39972   1.42175   1.42980   1.44071
 Alpha virt. eigenvalues --    1.45244   1.46014   1.46326   1.47265   1.49388
 Alpha virt. eigenvalues --    1.49810   1.50487   1.51360   1.53312   1.55330
 Alpha virt. eigenvalues --    1.56722   1.57704   1.59141   1.59749   1.60873
 Alpha virt. eigenvalues --    1.63656   1.65424   1.68348   1.69785   1.71374
 Alpha virt. eigenvalues --    1.72467   1.73127   1.74638   1.75963   1.76803
 Alpha virt. eigenvalues --    1.77710   1.78824   1.79600   1.80481   1.82043
 Alpha virt. eigenvalues --    1.83854   1.85417   1.87140   1.88544   1.89197
 Alpha virt. eigenvalues --    1.89717   1.91164   1.93052   1.94791   1.97410
 Alpha virt. eigenvalues --    1.98203   1.99644   2.01280   2.02205   2.03282
 Alpha virt. eigenvalues --    2.04740   2.06488   2.08560   2.09730   2.10673
 Alpha virt. eigenvalues --    2.12685   2.13572   2.15321   2.15582   2.17074
 Alpha virt. eigenvalues --    2.18722   2.19813   2.22359   2.22933   2.23512
 Alpha virt. eigenvalues --    2.25106   2.25663   2.26242   2.28012   2.28131
 Alpha virt. eigenvalues --    2.28822   2.29658   2.30266   2.31767   2.33308
 Alpha virt. eigenvalues --    2.34397   2.35786   2.37119   2.38788   2.40823
 Alpha virt. eigenvalues --    2.42200   2.43201   2.44933   2.45529   2.47932
 Alpha virt. eigenvalues --    2.48600   2.48924   2.49512   2.52164   2.53624
 Alpha virt. eigenvalues --    2.55206   2.55552   2.56375   2.58503   2.59758
 Alpha virt. eigenvalues --    2.61620   2.63787   2.64039   2.65396   2.66865
 Alpha virt. eigenvalues --    2.68845   2.70486   2.73889   2.74161   2.75182
 Alpha virt. eigenvalues --    2.76507   2.77057   2.81705   2.83631   2.85565
 Alpha virt. eigenvalues --    2.86445   2.88579   2.89093   2.91289   2.91884
 Alpha virt. eigenvalues --    2.92351   2.94399   2.97242   2.99663   3.01212
 Alpha virt. eigenvalues --    3.01943   3.03642   3.05291   3.05843   3.07731
 Alpha virt. eigenvalues --    3.09516   3.09646   3.13353   3.14647   3.15867
 Alpha virt. eigenvalues --    3.16957   3.18253   3.20100   3.21315   3.22147
 Alpha virt. eigenvalues --    3.24844   3.26497   3.26676   3.27728   3.29570
 Alpha virt. eigenvalues --    3.31306   3.31953   3.34602   3.34832   3.35561
 Alpha virt. eigenvalues --    3.37052   3.38470   3.38829   3.39586   3.41275
 Alpha virt. eigenvalues --    3.42445   3.43585   3.45039   3.45657   3.46485
 Alpha virt. eigenvalues --    3.47148   3.49674   3.50407   3.51231   3.51521
 Alpha virt. eigenvalues --    3.54505   3.54629   3.55696   3.56254   3.57272
 Alpha virt. eigenvalues --    3.59957   3.60640   3.61593   3.63017   3.63799
 Alpha virt. eigenvalues --    3.66288   3.66949   3.67973   3.69600   3.71000
 Alpha virt. eigenvalues --    3.71782   3.73704   3.73938   3.75529   3.77292
 Alpha virt. eigenvalues --    3.78280   3.79263   3.79812   3.81322   3.82805
 Alpha virt. eigenvalues --    3.83495   3.84109   3.86496   3.87436   3.88326
 Alpha virt. eigenvalues --    3.89691   3.91256   3.93530   3.95724   3.98632
 Alpha virt. eigenvalues --    4.00370   4.01063   4.02252   4.05116   4.07024
 Alpha virt. eigenvalues --    4.08227   4.08769   4.11472   4.13436   4.14403
 Alpha virt. eigenvalues --    4.16280   4.18548   4.18678   4.24556   4.25235
 Alpha virt. eigenvalues --    4.28559   4.31181   4.34905   4.35583   4.40482
 Alpha virt. eigenvalues --    4.43370   4.44544   4.46456   4.49313   4.52407
 Alpha virt. eigenvalues --    4.55247   4.57320   4.62031   4.64541   4.65995
 Alpha virt. eigenvalues --    4.69080   4.72015   4.73405   4.80447   4.84440
 Alpha virt. eigenvalues --    4.86332   4.88632   4.91296   4.94786   5.01112
 Alpha virt. eigenvalues --    5.07106   5.09862   5.10936   5.11301   5.12034
 Alpha virt. eigenvalues --    5.13299   5.13495   5.14378   5.14647   5.15500
 Alpha virt. eigenvalues --    5.15660   5.16043   5.17113   5.17850   5.18703
 Alpha virt. eigenvalues --    5.19487   5.20227   5.21615   5.22228   5.23586
 Alpha virt. eigenvalues --    5.25745   5.26184   5.28418   5.29691   5.30220
 Alpha virt. eigenvalues --    5.30345   5.33660   5.34534   5.35871   5.36382
 Alpha virt. eigenvalues --    5.38009   5.38734   5.39743   5.41888   5.43088
 Alpha virt. eigenvalues --    5.44797   5.46569   5.46958   5.48199   5.52469
 Alpha virt. eigenvalues --    5.59793   5.67527   5.67894   5.70489   5.72346
 Alpha virt. eigenvalues --    5.74017   5.75886   5.76947   5.79530   5.80400
 Alpha virt. eigenvalues --    5.84332   5.85027   5.89635   5.92448   5.99073
 Alpha virt. eigenvalues --    6.03231   6.16289   6.17779   6.25803   6.28697
 Alpha virt. eigenvalues --    6.30300   6.31430   6.36927   6.43112   6.46572
 Alpha virt. eigenvalues --    6.48949   6.53076   6.64893   6.73076   6.83755
 Alpha virt. eigenvalues --    6.89574   6.91545   6.95431   6.96122   6.99727
 Alpha virt. eigenvalues --    7.03575   7.11277   7.14932   7.15660   7.16644
 Alpha virt. eigenvalues --    7.19851   7.22601   7.24415   7.26456   7.27621
 Alpha virt. eigenvalues --    7.28246   7.29622   7.31662   7.37718   7.42132
 Alpha virt. eigenvalues --    7.50281   7.52658   7.53747   7.57891   7.61785
 Alpha virt. eigenvalues --    7.63389   7.65326   7.69876   7.70471   7.82526
 Alpha virt. eigenvalues --    7.83429  24.28946  24.33876  24.35721  24.40296
 Alpha virt. eigenvalues --   24.41168  24.43447  24.50807  24.82096  35.86042
 Alpha virt. eigenvalues --   49.98302  50.01597  50.03072  50.08424  50.13627
 Alpha virt. eigenvalues --   50.20565
          Condensed to atoms (all electrons):
              1          2          3          4          5          6
     1  C    8.199184   0.475526   0.047589   0.082290  -0.131247   0.005489
     2  H    0.475526   0.556658  -0.043318  -0.003409  -0.000601   0.000130
     3  O    0.047589  -0.043318   8.172435   0.214650  -0.082572   0.000719
     4  H    0.082290  -0.003409   0.214650   0.460067  -0.030584   0.000121
     5  C   -0.131247  -0.000601  -0.082572  -0.030584   7.710612   0.478786
     6  H    0.005489   0.000130   0.000719   0.000121   0.478786   0.559233
     7  O    0.292891  -0.072256  -0.057863   0.004350   0.353105  -0.059953
     8  C   -2.722020  -0.077085   0.291479  -0.005487  -1.497910   0.010852
     9  H   -0.038328  -0.002399  -0.006763   0.000715  -0.003725   0.000083
    10  N    0.347863   0.000559   0.009025  -0.000701  -0.030180  -0.000763
    11  H   -0.035066  -0.000448  -0.000786   0.000088  -0.015252   0.000304
    12  C   -0.108283   0.016310   0.021307  -0.004197  -0.071665   0.000499
    13  O   -0.074191   0.000614  -0.000675  -0.000230   0.003204   0.000000
    14  C   -0.123954  -0.000842   0.002416  -0.000037  -0.055027   0.000293
    15  H    0.003669  -0.000042  -0.000004   0.000000  -0.000517   0.000002
    16  H    0.000113   0.000004   0.000005   0.000000   0.000014   0.000000
    17  H   -0.001574   0.000019  -0.000002  -0.000002   0.000194   0.000000
    18  C   -0.087129   0.013348  -0.261932  -0.031889   2.260897  -0.015592
    19  H    0.030033  -0.000423   0.001256  -0.000231  -0.031533  -0.000269
    20  O    0.052102  -0.000763   0.017559  -0.005289  -0.019417   0.000064
    21  H    0.010863  -0.000224  -0.005426  -0.001243  -0.005796  -0.000886
    22  C    0.107418  -0.009459   0.090597   0.028415  -2.601268  -0.045117
    23  H   -0.029188   0.000178   0.000661  -0.000042  -0.045797  -0.000696
    24  O   -0.025396   0.001208   0.001260  -0.000060  -0.006618  -0.003082
    25  H    0.008479  -0.000037   0.000149   0.000001  -0.051337  -0.000339
    26  C   -0.154307   0.003595   0.056250  -0.005470  -0.293944  -0.060806
    27  H   -0.006660  -0.000003   0.000287  -0.000101  -0.079272  -0.003375
    28  H   -0.000871   0.000044  -0.000406   0.000047   0.002926  -0.003962
    29  O   -0.012571   0.000555   0.015391  -0.000839  -0.081607   0.008298
    30  H    0.064642  -0.000764  -0.020100   0.000564   0.055910  -0.001619
              7          8          9         10         11         12
     1  C    0.292891  -2.722020  -0.038328   0.347863  -0.035066  -0.108283
     2  H   -0.072256  -0.077085  -0.002399   0.000559  -0.000448   0.016310
     3  O   -0.057863   0.291479  -0.006763   0.009025  -0.000786   0.021307
     4  H    0.004350  -0.005487   0.000715  -0.000701   0.000088  -0.004197
     5  C    0.353105  -1.497910  -0.003725  -0.030180  -0.015252  -0.071665
     6  H   -0.059953   0.010852   0.000083  -0.000763   0.000304   0.000499
     7  O    7.902659  -0.206739   0.004723   0.011855   0.004761  -0.006779
     8  C   -0.206739  13.274508   0.392883  -0.216156   0.046135   0.006894
     9  H    0.004723   0.392883   0.515539  -0.040324   0.008079   0.006227
    10  N    0.011855  -0.216156  -0.040324   7.007989   0.309462   0.072754
    11  H    0.004761   0.046135   0.008079   0.309462   0.406868  -0.003053
    12  C   -0.006779   0.006894   0.006227   0.072754  -0.003053   6.005667
    13  O    0.000540   0.010775   0.007811  -0.088323   0.000224   0.367139
    14  C   -0.000190   0.124315   0.005160  -0.150383   0.007258  -0.406086
    15  H   -0.000185   0.011609  -0.000108   0.005153   0.005840  -0.061638
    16  H    0.000030  -0.008298   0.000093   0.002456  -0.000144  -0.041727
    17  H    0.000026  -0.002539  -0.000024   0.003917  -0.000394  -0.055801
    18  C    0.152240  -5.429515  -0.011400  -0.200186  -0.051375  -0.200866
    19  H   -0.002227  -0.041827  -0.004198   0.005771  -0.000116  -0.002378
    20  O   -0.001237   0.042383  -0.010839  -0.001789  -0.000015   0.005294
    21  H   -0.002175  -0.055816   0.001447  -0.000424   0.000138   0.000545
    22  C   -0.083242   2.146948   0.008800   0.051095   0.037361   0.071667
    23  H    0.002233   0.034042  -0.000389  -0.000629  -0.000299   0.001660
    24  O    0.012276  -0.157909  -0.001478   0.028714  -0.014378   0.003554
    25  H   -0.001807   0.021466   0.000080  -0.005520  -0.001451  -0.002281
    26  C   -0.099900   0.273398   0.000263   0.021500  -0.001478   0.012594
    27  H   -0.003032   0.002665  -0.000016  -0.000356   0.000004   0.000017
    28  H    0.006803  -0.004486  -0.000008  -0.000396   0.000020  -0.000107
    29  O    0.000570  -0.003642  -0.000703  -0.001275  -0.000160  -0.000840
    30  H    0.011541  -0.130369   0.000569  -0.000375   0.000066  -0.002241
             13         14         15         16         17         18
     1  C   -0.074191  -0.123954   0.003669   0.000113  -0.001574  -0.087129
     2  H    0.000614  -0.000842  -0.000042   0.000004   0.000019   0.013348
     3  O   -0.000675   0.002416  -0.000004   0.000005  -0.000002  -0.261932
     4  H   -0.000230  -0.000037   0.000000   0.000000  -0.000002  -0.031889
     5  C    0.003204  -0.055027  -0.000517   0.000014   0.000194   2.260897
     6  H    0.000000   0.000293   0.000002   0.000000   0.000000  -0.015592
     7  O    0.000540  -0.000190  -0.000185   0.000030   0.000026   0.152240
     8  C    0.010775   0.124315   0.011609  -0.008298  -0.002539  -5.429515
     9  H    0.007811   0.005160  -0.000108   0.000093  -0.000024  -0.011400
    10  N   -0.088323  -0.150383   0.005153   0.002456   0.003917  -0.200186
    11  H    0.000224   0.007258   0.005840  -0.000144  -0.000394  -0.051375
    12  C    0.367139  -0.406086  -0.061638  -0.041727  -0.055801  -0.200866
    13  O    8.138653  -0.000100   0.006487  -0.002667  -0.003441   0.055449
    14  C   -0.000100   5.985790   0.398587   0.414882   0.428211  -0.170725
    15  H    0.006487   0.398587   0.558702  -0.029442  -0.028995  -0.000446
    16  H   -0.002667   0.414882  -0.029442   0.525418  -0.025217   0.000401
    17  H   -0.003441   0.428211  -0.028995  -0.025217   0.518677   0.001113
    18  C    0.055449  -0.170725  -0.000446   0.000401   0.001113  14.264418
    19  H    0.000324  -0.001742  -0.000011   0.000006   0.000001   0.312598
    20  O    0.001103   0.000567  -0.000009  -0.000003   0.000001   0.072930
    21  H   -0.000009   0.000001   0.000000   0.000000   0.000000   0.095526
    22  C    0.001227   0.100885  -0.000750  -0.000045  -0.000301  -4.682272
    23  H   -0.000004   0.000169   0.000000   0.000000   0.000000  -0.020366
    24  O    0.000863  -0.008166  -0.000673   0.000045   0.000042   0.210586
    25  H   -0.000022  -0.000710   0.000052   0.000004  -0.000003  -0.072626
    26  C   -0.000550   0.000120   0.000041   0.000009   0.000005  -0.215050
    27  H   -0.000001   0.000001   0.000000   0.000000   0.000000   0.004071
    28  H    0.000000  -0.000013   0.000000   0.000000   0.000000   0.014395
    29  O   -0.000046  -0.000050   0.000000   0.000000   0.000000  -0.062838
    30  H    0.000012  -0.000206   0.000000   0.000000   0.000000   0.132132
             19         20         21         22         23         24
     1  C    0.030033   0.052102   0.010863   0.107418  -0.029188  -0.025396
     2  H   -0.000423  -0.000763  -0.000224  -0.009459   0.000178   0.001208
     3  O    0.001256   0.017559  -0.005426   0.090597   0.000661   0.001260
     4  H   -0.000231  -0.005289  -0.001243   0.028415  -0.000042  -0.000060
     5  C   -0.031533  -0.019417  -0.005796  -2.601268  -0.045797  -0.006618
     6  H   -0.000269   0.000064  -0.000886  -0.045117  -0.000696  -0.003082
     7  O   -0.002227  -0.001237  -0.002175  -0.083242   0.002233   0.012276
     8  C   -0.041827   0.042383  -0.055816   2.146948   0.034042  -0.157909
     9  H   -0.004198  -0.010839   0.001447   0.008800  -0.000389  -0.001478
    10  N    0.005771  -0.001789  -0.000424   0.051095  -0.000629   0.028714
    11  H   -0.000116  -0.000015   0.000138   0.037361  -0.000299  -0.014378
    12  C   -0.002378   0.005294   0.000545   0.071667   0.001660   0.003554
    13  O    0.000324   0.001103  -0.000009   0.001227  -0.000004   0.000863
    14  C   -0.001742   0.000567   0.000001   0.100885   0.000169  -0.008166
    15  H   -0.000011  -0.000009   0.000000  -0.000750   0.000000  -0.000673
    16  H    0.000006  -0.000003   0.000000  -0.000045   0.000000   0.000045
    17  H    0.000001   0.000001   0.000000  -0.000301   0.000000   0.000042
    18  C    0.312598   0.072930   0.095526  -4.682272  -0.020366   0.210586
    19  H    0.604217  -0.059909   0.002810   0.060423  -0.008034  -0.004038
    20  O   -0.059909   7.956698   0.289616  -0.003895  -0.010651   0.006493
    21  H    0.002810   0.289616   0.316063  -0.023485   0.001239  -0.001268
    22  C    0.060423  -0.003895  -0.023485  10.233306   0.395910   0.006684
    23  H   -0.008034  -0.010651   0.001239   0.395910   0.574782  -0.035270
    24  O   -0.004038   0.006493  -0.001268   0.006684  -0.035270   8.133355
    25  H    0.001274   0.000025   0.000025   0.131673  -0.014060   0.246978
    26  C    0.003248   0.009584   0.014976   0.097553   0.015817   0.015386
    27  H    0.000003  -0.001254   0.000767   0.036418  -0.000082  -0.000841
    28  H    0.000011  -0.000027  -0.001890  -0.047271   0.001796  -0.000423
    29  O    0.002262   0.006074   0.047104   0.094665  -0.003030  -0.000018
    30  H   -0.000520  -0.021338   0.001146  -0.094352  -0.000167  -0.000165
             25         26         27         28         29         30
     1  C    0.008479  -0.154307  -0.006660  -0.000871  -0.012571   0.064642
     2  H   -0.000037   0.003595  -0.000003   0.000044   0.000555  -0.000764
     3  O    0.000149   0.056250   0.000287  -0.000406   0.015391  -0.020100
     4  H    0.000001  -0.005470  -0.000101   0.000047  -0.000839   0.000564
     5  C   -0.051337  -0.293944  -0.079272   0.002926  -0.081607   0.055910
     6  H   -0.000339  -0.060806  -0.003375  -0.003962   0.008298  -0.001619
     7  O   -0.001807  -0.099900  -0.003032   0.006803   0.000570   0.011541
     8  C    0.021466   0.273398   0.002665  -0.004486  -0.003642  -0.130369
     9  H    0.000080   0.000263  -0.000016  -0.000008  -0.000703   0.000569
    10  N   -0.005520   0.021500  -0.000356  -0.000396  -0.001275  -0.000375
    11  H   -0.001451  -0.001478   0.000004   0.000020  -0.000160   0.000066
    12  C   -0.002281   0.012594   0.000017  -0.000107  -0.000840  -0.002241
    13  O   -0.000022  -0.000550  -0.000001   0.000000  -0.000046   0.000012
    14  C   -0.000710   0.000120   0.000001  -0.000013  -0.000050  -0.000206
    15  H    0.000052   0.000041   0.000000   0.000000   0.000000   0.000000
    16  H    0.000004   0.000009   0.000000   0.000000   0.000000   0.000000
    17  H   -0.000003   0.000005   0.000000   0.000000   0.000000   0.000000
    18  C   -0.072626  -0.215050   0.004071   0.014395  -0.062838   0.132132
    19  H    0.001274   0.003248   0.000003   0.000011   0.002262  -0.000520
    20  O    0.000025   0.009584  -0.001254  -0.000027   0.006074  -0.021338
    21  H    0.000025   0.014976   0.000767  -0.001890   0.047104   0.001146
    22  C    0.131673   0.097553   0.036418  -0.047271   0.094665  -0.094352
    23  H   -0.014060   0.015817  -0.000082   0.001796  -0.003030  -0.000167
    24  O    0.246978   0.015386  -0.000841  -0.000423  -0.000018  -0.000165
    25  H    0.452650  -0.002249   0.000029   0.000010   0.000253  -0.000023
    26  C   -0.002249   5.597969   0.421623   0.418230   0.176761   0.003296
    27  H    0.000029   0.421623   0.566175  -0.037366  -0.031846  -0.011314
    28  H    0.000010   0.418230  -0.037366   0.565628  -0.058290   0.006931
    29  O    0.000253   0.176761  -0.031846  -0.058290   7.992716   0.278177
    30  H   -0.000023   0.003296  -0.011314   0.006931   0.278177   0.398350
 Mulliken atomic charges:
              1
     1  C   -0.177366
     2  H    0.143327
     3  O   -0.463188
     4  H    0.298502
     5  C    0.270221
     6  H    0.131588
     7  O   -0.163017
     8  C   -0.130555
     9  H    0.168230
    10  N   -0.140332
    11  H    0.297806
    12  C    0.375815
    13  O   -0.424163
    14  C   -0.550427
    15  H    0.132679
    16  H    0.164063
    17  H    0.166087
    18  C   -0.075900
    19  H    0.133217
    20  O   -0.324057
    21  H    0.316377
    22  C   -0.109589
    23  H    0.140217
    24  O   -0.407661
    25  H    0.289316
    26  C   -0.308467
    27  H    0.143458
    28  H    0.138674
    29  O   -0.365072
    30  H    0.330218
 Sum of Mulliken atomic charges =   0.00000
 Mulliken charges with hydrogens summed into heavy atoms:
              1
     1  C   -0.034040
     3  O   -0.164685
     5  C    0.401808
     7  O   -0.163017
     8  C    0.037675
    10  N    0.157474
    12  C    0.375815
    13  O   -0.424163
    14  C   -0.087598
    18  C    0.057317
    20  O   -0.007680
    22  C    0.030628
    24  O   -0.118345
    26  C   -0.026335
    29  O   -0.034854
 Sum of Mulliken charges with hydrogens summed into heavy atoms =   0.00000
 Electronic spatial extent (au):  <R**2>=           3185.5108
 Charge=              0.0000 electrons
 Dipole moment (field-independent basis, Debye):
    X=             -2.3402    Y=              3.1253    Z=             -0.4626  Tot=              3.9317
 Quadrupole moment (field-independent basis, Debye-Ang):
   XX=            -82.0704   YY=            -95.5642   ZZ=            -97.4574
   XY=             -4.2695   XZ=             -0.1739   YZ=              0.5726
 Traceless Quadrupole moment (field-independent basis, Debye-Ang):
   XX=              9.6269   YY=             -3.8669   ZZ=             -5.7600
   XY=             -4.2695   XZ=             -0.1739   YZ=              0.5726
 Octapole moment (field-independent basis, Debye-Ang**2):
  XXX=            -25.0532  YYY=             60.9412  ZZZ=            -20.7724  XYY=             19.5488
  XXY=            -11.0069  XXZ=             -2.1677  XZZ=            -15.7610  YZZ=             -1.9473
  YYZ=             31.7433  XYZ=            -15.1192
 Hexadecapole moment (field-independent basis, Debye-Ang**3):
 XXXX=          -1352.5016 YYYY=          -1690.3733 ZZZZ=          -1140.8819 XXXY=           -344.1468
 XXXZ=           -312.2404 YYYX=           -344.4272 YYYZ=           -408.3302 ZZZX=           -303.2912
 ZZZY=           -328.4261 XXYY=           -444.0530 XXZZ=           -411.8864 YYZZ=           -455.2622
 XXYZ=           -107.6999 YYXZ=           -115.9578 ZZXY=           -116.2072
 N-N= 1.180998742049D+03 E-N=-4.285361010911D+03  KE= 8.171878500272D+02
 Calling FoFJK, ICntrl=      2127 FMM=F ISym2X=0 I1Cent= 0 IOpClX= 0 NMat=1 NMatS=1 NMatT=0.
 -------------------------------------------------------------------
 Center     Atomic                   Forces (Hartrees/Bohr)
 Number     Number              X              Y              Z
 -------------------------------------------------------------------
      1        6          -0.000448963    0.000206893   -0.000373747
      2        1          -0.000030148    0.000158319   -0.000112464
      3        8           0.000300675    0.000005531    0.000165805
      4        1           0.000131657    0.000022602    0.000047876
      5        6           0.000132144    0.000088432    0.000162600
      6        1           0.000008874   -0.000070371   -0.000038493
      7        8          -0.000006676   -0.000474961    0.000177227
      8        6           0.000126683    0.000088120    0.000151015
      9        1          -0.000108050    0.000004392   -0.000030281
     10        7          -0.000099120   -0.000186572   -0.000054445
     11        1           0.000000159    0.000062960    0.000063731
     12        6          -0.000114586    0.000181580    0.000102296
     13        8           0.000121396   -0.000052929    0.000046071
     14        6           0.000015417   -0.000096471   -0.000017810
     15        1           0.000012434    0.000042810    0.000038039
     16        1           0.000015671    0.000018610    0.000038891
     17        1           0.000037417    0.000095224   -0.000049731
     18        6           0.000010733    0.000093236    0.000038710
     19        1          -0.000171372    0.000028951   -0.000128001
     20        8           0.000205144    0.000105795   -0.000118432
     21        1          -0.000111254   -0.000151421    0.000033366
     22        6           0.000044996   -0.000280419   -0.000301944
     23        1          -0.000021455    0.000122831    0.000133336
     24        8           0.000076633    0.000038493   -0.000013129
     25        1          -0.000052868   -0.000065997    0.000049616
     26        6          -0.000054195   -0.000110876   -0.000034370
     27        1           0.000008069   -0.000014983    0.000019110
     28        1           0.000009367    0.000023245    0.000006556
     29        8          -0.000009339   -0.000050893   -0.000037310
     30        1          -0.000029443    0.000167870    0.000035913
 -------------------------------------------------------------------
 Cartesian Forces:  Max     0.000474961 RMS     0.000130405

 GradGradGradGradGradGradGradGradGradGradGradGradGradGradGradGradGradGrad
 Berny optimization.
 Internal  Forces:  Max     0.000504677 RMS     0.000088928
 Search for a local minimum.
 Step number   1 out of a maximum of  174
 All quantities printed in internal units (Hartrees-Bohrs-Radians)
 Mixed Optimization -- En-DIIS/RFO-DIIS
 Second derivative matrix not updated -- first step.
 ITU=  0
     Eigenvalues ---    0.00408   0.00454   0.00574   0.00982   0.01015
     Eigenvalues ---    0.01179   0.01217   0.01233   0.01386   0.01535
     Eigenvalues ---    0.01578   0.02169   0.02401   0.03151   0.03614
     Eigenvalues ---    0.04335   0.04448   0.04685   0.04861   0.04953
     Eigenvalues ---    0.05213   0.05298   0.05907   0.05965   0.06024
     Eigenvalues ---    0.06299   0.06697   0.06907   0.07253   0.07419
     Eigenvalues ---    0.07581   0.07790   0.08399   0.09721   0.11029
     Eigenvalues ---    0.11910   0.12076   0.14176   0.15800   0.15806
     Eigenvalues ---    0.16000   0.16000   0.16000   0.16000   0.16000
     Eigenvalues ---    0.16088   0.16383   0.17252   0.18542   0.19542
     Eigenvalues ---    0.20962   0.22044   0.24995   0.25000   0.26586
     Eigenvalues ---    0.27467   0.27716   0.28467   0.29065   0.30898
     Eigenvalues ---    0.34264   0.34275   0.34306   0.34439   0.34525
     Eigenvalues ---    0.34601   0.34621   0.34743   0.34769   0.34815
     Eigenvalues ---    0.37765   0.37773   0.39760   0.40149   0.42118
     Eigenvalues ---    0.44164   0.44947   0.46080   0.50053   0.51307
     Eigenvalues ---    0.52166   0.54448   0.54795   0.94901
 RFO step:  Lambda=-1.05536544D-05 EMin= 4.08034272D-03
 Linear search not attempted -- first point.
 Iteration  1 RMS(Cart)=  0.00403818 RMS(Int)=  0.00001512
 Iteration  2 RMS(Cart)=  0.00001752 RMS(Int)=  0.00000064
 Iteration  3 RMS(Cart)=  0.00000000 RMS(Int)=  0.00000064
 Variable       Old X    -DE/DX   Delta X   Delta X   Delta X     New X
                                 (Linear)    (Quad)   (Total)
    R1        2.06328   0.00002   0.00000   0.00007   0.00007   2.06335
    R2        2.71120   0.00047   0.00000   0.00119   0.00119   2.71239
    R3        2.63270  -0.00050   0.00000  -0.00111  -0.00111   2.63159
    R4        2.91494   0.00004   0.00000   0.00034   0.00034   2.91528
    R5        1.82325  -0.00001   0.00000  -0.00002  -0.00002   1.82323
    R6        3.48201   0.00003   0.00000   0.00066   0.00066   3.48267
    R7        2.06595  -0.00004   0.00000  -0.00011  -0.00011   2.06585
    R8        2.71996  -0.00004   0.00000  -0.00016  -0.00016   2.71980
    R9        2.89968  -0.00007   0.00000  -0.00037  -0.00037   2.89931
   R10        2.89143  -0.00009   0.00000  -0.00030  -0.00030   2.89113
   R11        2.06051  -0.00003   0.00000  -0.00009  -0.00009   2.06042
   R12        2.74697  -0.00011   0.00000  -0.00030  -0.00030   2.74666
   R13        2.91829  -0.00018   0.00000  -0.00061  -0.00061   2.91767
   R14        1.90741   0.00004   0.00000   0.00008   0.00008   1.90749
   R15        2.57741  -0.00025   0.00000  -0.00048  -0.00048   2.57693
   R16        2.30753   0.00012   0.00000   0.00012   0.00012   2.30765
   R17        2.86208  -0.00007   0.00000  -0.00023  -0.00023   2.86184
   R18        2.06094   0.00003   0.00000   0.00008   0.00008   2.06102
   R19        2.06295  -0.00001   0.00000  -0.00003  -0.00003   2.06293
   R20        2.05976   0.00002   0.00000   0.00007   0.00007   2.05982
   R21        2.06817   0.00012   0.00000   0.00036   0.00036   2.06853
   R22        2.66253  -0.00001   0.00000  -0.00003  -0.00003   2.66250
   R23        2.91269  -0.00014   0.00000  -0.00045  -0.00045   2.91225
   R24        1.84578  -0.00017   0.00000  -0.00035  -0.00035   1.84544
   R25        3.45209   0.00001   0.00000  -0.00011  -0.00011   3.45198
   R26        2.06868   0.00018   0.00000   0.00052   0.00052   2.06920
   R27        2.71881  -0.00004   0.00000  -0.00011  -0.00011   2.71870
   R28        1.82015   0.00007   0.00000   0.00012   0.00012   1.82027
   R29        2.06887  -0.00001   0.00000  -0.00003  -0.00003   2.06884
   R30        2.06454   0.00002   0.00000   0.00006   0.00006   2.06460
   R31        2.68527  -0.00009   0.00000  -0.00024  -0.00024   2.68503
   R32        1.84253  -0.00014   0.00000  -0.00025  -0.00025   1.84228
    A1        1.89122   0.00003   0.00000   0.00133   0.00133   1.89254
    A2        1.83123  -0.00007   0.00000  -0.00129  -0.00129   1.82994
    A3        1.90186   0.00005   0.00000   0.00090   0.00090   1.90276
    A4        1.89543  -0.00019   0.00000  -0.00185  -0.00185   1.89358
    A5        1.95956   0.00018   0.00000   0.00097   0.00097   1.96053
    A6        1.97847  -0.00002   0.00000  -0.00012  -0.00012   1.97835
    A7        1.90632   0.00026   0.00000   0.00162   0.00162   1.90794
    A8        1.80254  -0.00004   0.00000  -0.00081  -0.00081   1.80173
    A9        1.84940   0.00003   0.00000   0.00010   0.00010   1.84951
   A10        1.84651   0.00000   0.00000   0.00030   0.00030   1.84681
   A11        1.97354  -0.00009   0.00000  -0.00065  -0.00065   1.97289
   A12        1.95847   0.00011   0.00000   0.00067   0.00067   1.95914
   A13        2.01171  -0.00002   0.00000   0.00028   0.00028   2.01200
   A14        2.10151   0.00012   0.00000   0.00038   0.00037   2.10189
   A15        1.89493   0.00003   0.00000   0.00074   0.00074   1.89567
   A16        1.90815   0.00002   0.00000  -0.00014  -0.00013   1.90802
   A17        1.97060   0.00004   0.00000   0.00059   0.00059   1.97118
   A18        1.86552  -0.00001   0.00000  -0.00048  -0.00048   1.86504
   A19        1.88791   0.00003   0.00000   0.00071   0.00071   1.88862
   A20        1.93329  -0.00012   0.00000  -0.00143  -0.00143   1.93185
   A21        2.04655  -0.00004   0.00000  -0.00043  -0.00043   2.04612
   A22        2.12083  -0.00004   0.00000  -0.00028  -0.00028   2.12055
   A23        2.09963   0.00008   0.00000   0.00035   0.00035   2.09998
   A24        2.13493  -0.00004   0.00000  -0.00012  -0.00012   2.13481
   A25        2.02097  -0.00010   0.00000  -0.00037  -0.00037   2.02060
   A26        2.12706   0.00014   0.00000   0.00057   0.00057   2.12763
   A27        1.98158  -0.00009   0.00000  -0.00072  -0.00072   1.98086
   A28        1.89532  -0.00003   0.00000  -0.00006  -0.00006   1.89526
   A29        1.89835   0.00002   0.00000   0.00022   0.00022   1.89857
   A30        1.90077   0.00003   0.00000   0.00005   0.00005   1.90082
   A31        1.90987  -0.00001   0.00000  -0.00024  -0.00024   1.90964
   A32        1.87502   0.00007   0.00000   0.00084   0.00084   1.87587
   A33        1.86507  -0.00001   0.00000  -0.00055  -0.00055   1.86452
   A34        1.96659  -0.00005   0.00000  -0.00041  -0.00041   1.96618
   A35        1.93597  -0.00005   0.00000  -0.00039  -0.00039   1.93558
   A36        1.84862   0.00007   0.00000   0.00143   0.00143   1.85006
   A37        1.87709  -0.00003   0.00000  -0.00093  -0.00093   1.87616
   A38        1.96328   0.00008   0.00000   0.00082   0.00082   1.96410
   A39        1.91743   0.00010   0.00000   0.00067   0.00067   1.91809
   A40        1.98913   0.00001   0.00000   0.00031   0.00031   1.98944
   A41        1.89254  -0.00003   0.00000   0.00014   0.00014   1.89268
   A42        1.85530   0.00006   0.00000   0.00009   0.00009   1.85539
   A43        1.89090   0.00002   0.00000   0.00007   0.00007   1.89097
   A44        1.91939  -0.00006   0.00000  -0.00042  -0.00042   1.91897
   A45        1.91577   0.00000   0.00000  -0.00021  -0.00021   1.91556
   A46        1.89652  -0.00004   0.00000  -0.00026  -0.00026   1.89626
   A47        1.88160   0.00002   0.00000   0.00015   0.00015   1.88176
   A48        1.89323   0.00000   0.00000   0.00004   0.00004   1.89327
   A49        2.01662   0.00000   0.00000  -0.00001  -0.00001   2.01661
   A50        1.88494  -0.00001   0.00000  -0.00005  -0.00005   1.88489
   A51        1.92433  -0.00001   0.00000  -0.00013  -0.00013   1.92420
   A52        1.85916   0.00000   0.00000   0.00000   0.00000   1.85915
   A53        1.86935  -0.00012   0.00000  -0.00078  -0.00078   1.86857
    D1       -1.21144  -0.00011   0.00000  -0.00091  -0.00091  -1.21235
    D2        3.09167   0.00005   0.00000   0.00085   0.00085   3.09253
    D3        0.88993   0.00009   0.00000   0.00171   0.00171   0.89164
    D4        2.89881  -0.00003   0.00000  -0.00016  -0.00016   2.89865
    D5       -1.36509  -0.00011   0.00000  -0.00012  -0.00012  -1.36521
    D6        0.82564  -0.00003   0.00000  -0.00036  -0.00036   0.82527
    D7        1.33003   0.00004   0.00000   0.00046   0.00046   1.33049
    D8       -0.69924   0.00002   0.00000   0.00069   0.00069  -0.69854
    D9       -2.85981   0.00013   0.00000   0.00223   0.00223  -2.85758
   D10       -0.76516  -0.00014   0.00000  -0.00243  -0.00243  -0.76759
   D11       -2.79444  -0.00016   0.00000  -0.00219  -0.00219  -2.79663
   D12        1.32818  -0.00006   0.00000  -0.00066  -0.00066   1.32752
   D13       -2.92114  -0.00002   0.00000  -0.00063  -0.00063  -2.92177
   D14        1.33277  -0.00004   0.00000  -0.00039  -0.00039   1.33238
   D15       -0.82780   0.00007   0.00000   0.00115   0.00115  -0.82665
   D16       -2.78340  -0.00001   0.00000  -0.00019  -0.00019  -2.78360
   D17       -0.79270  -0.00004   0.00000  -0.00082  -0.00082  -0.79352
   D18        1.51911  -0.00004   0.00000  -0.00039  -0.00039   1.51872
   D19        2.72550  -0.00005   0.00000  -0.00011  -0.00011   2.72539
   D20       -1.45034  -0.00004   0.00000   0.00028   0.00028  -1.45006
   D21        0.60847  -0.00002   0.00000   0.00016   0.00016   0.60863
   D22        0.76326   0.00003   0.00000   0.00111   0.00111   0.76437
   D23        2.87060   0.00004   0.00000   0.00150   0.00150   2.87210
   D24       -1.35377   0.00005   0.00000   0.00138   0.00138  -1.35240
   D25       -1.52227  -0.00004   0.00000   0.00049   0.00049  -1.52178
   D26        0.58508  -0.00002   0.00000   0.00088   0.00088   0.58596
   D27        2.64389  -0.00001   0.00000   0.00076   0.00076   2.64464
   D28       -1.04737   0.00000   0.00000  -0.00105  -0.00105  -1.04843
   D29        0.98964   0.00000   0.00000  -0.00101  -0.00101   0.98863
   D30        3.07480  -0.00001   0.00000  -0.00099  -0.00099   3.07380
   D31        0.90604   0.00000   0.00000  -0.00153  -0.00153   0.90452
   D32        2.94305   0.00001   0.00000  -0.00148  -0.00148   2.94157
   D33       -1.25497   0.00000   0.00000  -0.00146  -0.00146  -1.25644
   D34       -3.08443  -0.00003   0.00000  -0.00154  -0.00154  -3.08596
   D35       -1.04742  -0.00002   0.00000  -0.00150  -0.00150  -1.04891
   D36        1.03774  -0.00003   0.00000  -0.00148  -0.00148   1.03627
   D37       -1.43071  -0.00001   0.00000  -0.00326  -0.00327  -1.43397
   D38        1.51908  -0.00004   0.00000  -0.00534  -0.00534   1.51374
   D39        2.80459  -0.00005   0.00000  -0.00381  -0.00381   2.80079
   D40       -0.52881  -0.00008   0.00000  -0.00588  -0.00588  -0.53469
   D41        0.75169  -0.00003   0.00000  -0.00360  -0.00360   0.74809
   D42       -2.58172  -0.00005   0.00000  -0.00568  -0.00567  -2.58739
   D43        2.87152  -0.00011   0.00000  -0.00252  -0.00252   2.86900
   D44       -1.38835  -0.00006   0.00000  -0.00134  -0.00134  -1.38969
   D45        0.83038  -0.00004   0.00000  -0.00088  -0.00088   0.82951
   D46       -1.31430  -0.00002   0.00000  -0.00074  -0.00074  -1.31503
   D47        0.70902   0.00003   0.00000   0.00044   0.00045   0.70947
   D48        2.92775   0.00005   0.00000   0.00091   0.00091   2.92866
   D49        0.72486  -0.00008   0.00000  -0.00170  -0.00170   0.72316
   D50        2.74818  -0.00003   0.00000  -0.00052  -0.00052   2.74766
   D51       -1.31627  -0.00001   0.00000  -0.00005  -0.00006  -1.31633
   D52        0.05135  -0.00001   0.00000  -0.00122  -0.00122   0.05014
   D53       -3.11252   0.00005   0.00000   0.00342   0.00342  -3.10910
   D54        2.99539  -0.00005   0.00000  -0.00344  -0.00344   2.99195
   D55       -0.16849   0.00001   0.00000   0.00120   0.00120  -0.16729
   D56        0.14950  -0.00005   0.00000  -0.00756  -0.00756   0.14194
   D57       -1.96746  -0.00002   0.00000  -0.00711  -0.00711  -1.97456
   D58        2.28028  -0.00010   0.00000  -0.00819  -0.00819   2.27209
   D59       -3.01426   0.00000   0.00000  -0.00295  -0.00295  -3.01721
   D60        1.15197   0.00004   0.00000  -0.00250  -0.00250   1.14947
   D61       -0.88348  -0.00005   0.00000  -0.00359  -0.00359  -0.88707
   D62        1.53534  -0.00004   0.00000  -0.00168  -0.00168   1.53366
   D63       -2.71470  -0.00004   0.00000  -0.00168  -0.00168  -2.71638
   D64       -0.66881   0.00001   0.00000  -0.00149  -0.00149  -0.67030
   D65       -0.80928  -0.00005   0.00000  -0.00037  -0.00037  -0.80966
   D66       -2.91754  -0.00003   0.00000  -0.00081  -0.00081  -2.91835
   D67        1.27177   0.00000   0.00000  -0.00035  -0.00035   1.27142
   D68       -2.84303   0.00001   0.00000   0.00104   0.00104  -2.84198
   D69        1.33190   0.00003   0.00000   0.00061   0.00061   1.33251
   D70       -0.76198   0.00006   0.00000   0.00107   0.00107  -0.76091
   D71        1.41126  -0.00009   0.00000  -0.00058  -0.00058   1.41068
   D72       -0.69700  -0.00008   0.00000  -0.00102  -0.00102  -0.69801
   D73       -2.79087  -0.00005   0.00000  -0.00056  -0.00056  -2.79143
   D74       -2.83659  -0.00003   0.00000  -0.00317  -0.00317  -2.83976
   D75        1.28549  -0.00005   0.00000  -0.00336  -0.00336   1.28213
   D76       -0.79323  -0.00003   0.00000  -0.00306  -0.00306  -0.79628
   D77        1.09757   0.00002   0.00000   0.00083   0.00083   1.09841
   D78       -1.04089   0.00000   0.00000   0.00075   0.00075  -1.04015
   D79       -3.08185   0.00002   0.00000   0.00088   0.00087  -3.08097
         Item               Value     Threshold  Converged?
 Maximum Force            0.000505     0.000015     NO 
 RMS     Force            0.000089     0.000010     NO 
 Maximum Displacement     0.026342     0.000060     NO 
 RMS     Displacement     0.004041     0.000040     NO 
 Predicted change in Energy=-5.278312D-06
 GradGradGradGradGradGradGradGradGradGradGradGradGradGradGradGradGradGrad

                          Input orientation:                          
 ---------------------------------------------------------------------
 Center     Atomic      Atomic             Coordinates (Angstroms)
 Number     Number       Type             X           Y           Z
 ---------------------------------------------------------------------
      1          6           0        1.025937   -0.399012   -0.665384
      2          1           0        1.069982   -0.906598   -1.631103
      3          8           0        2.220694   -0.711057    0.066302
      4          1           0        2.202760   -1.640264    0.325372
      5          6           0        0.694855    1.937194    0.022722
      6          1           0        0.428682    2.816128   -0.570330
      7          8           0        1.039391    0.958667   -0.974895
      8          6           0       -0.250112   -0.843927    0.078709
      9          1           0       -0.088799   -1.845631    0.477934
     10          7           0       -1.349767   -0.939088   -0.866957
     11          1           0       -1.830968   -0.083862   -1.103441
     12          6           0       -1.578609   -2.077891   -1.581315
     13          8           0       -0.910454   -3.088781   -1.429998
     14          6           0       -2.731955   -2.020003   -2.561068
     15          1           0       -3.154618   -1.021246   -2.676587
     16          1           0       -3.515280   -2.698010   -2.216949
     17          1           0       -2.387891   -2.382101   -3.529898
     18          6           0       -0.618943    0.089460    1.251987
     19          1           0       -1.655395   -0.135904    1.522492
     20          8           0        0.147425   -0.162137    2.407183
     21          1           0        0.972574    0.359395    2.378748
     22          6           0       -0.564354    1.566950    0.817225
     23          1           0       -0.603575    2.192129    1.715324
     24          8           0       -1.683225    1.869476   -0.035060
     25          1           0       -2.479307    1.912824    0.505512
     26          6           0        1.901058    2.353430    0.866804
     27          1           0        2.704688    2.643770    0.182382
     28          1           0        1.625285    3.231552    1.455438
     29          8           0        2.368774    1.379218    1.789294
     30          1           0        2.669512    0.612497    1.267651
 ---------------------------------------------------------------------
                    Distance matrix (angstroms):
                    1          2          3          4          5
     1  C    0.000000
     2  H    1.091878   0.000000
     3  O    1.435333   2.059990   0.000000
     4  H    1.976668   2.376815   0.964813   0.000000
     5  C    2.457837   3.311043   3.056683   3.894043   0.000000
     6  H    3.271524   3.923670   4.007198   4.879453   1.093199
     7  O    1.392577   1.977564   2.295114   3.130266   1.439256
     8  C    1.542700   2.161026   2.474407   2.590670   2.937810
     9  H    2.154651   2.583137   2.605851   2.305795   3.889870
    10  N    2.444644   2.537747   3.697454   3.812315   3.639369
    11  H    2.907424   3.061181   4.263524   4.553553   3.425301
    12  C    3.231288   2.896453   4.360915   4.257431   4.884923
    13  O    3.401339   2.953726   4.206730   3.856375   5.472462
    14  C    4.510320   4.069303   5.757182   5.729498   5.837671
    15  H    4.680722   4.353553   6.042652   6.172231   5.554915
    16  H    5.321222   4.957519   6.485570   6.346511   6.650299
    17  H    4.877735   4.211818   6.079811   6.040489   6.385979
    18  C    2.573042   3.486661   3.179656   3.436941   2.579007
    19  H    3.470673   4.238727   4.180354   4.310632   3.474295
    20  O    3.204459   4.208692   3.174820   3.277681   3.223744
    21  H    3.137638   4.206083   2.837443   3.119029   2.849112
    22  C    2.931239   3.844971   3.675554   4.264394   1.534251
    23  H    3.877769   4.858135   4.373130   4.949214   2.148445
    24  O    3.589277   4.223042   4.680813   5.248720   2.379746
    25  H    4.359165   5.011159   5.400710   5.880360   3.210761
    26  C    3.269461   4.190228   3.183402   4.041505   1.529919
    27  H    3.577070   4.308840   3.391546   4.315706   2.136391
    28  H    4.247128   5.192242   4.222366   5.034393   2.143301
    29  O    3.315231   4.314039   2.712909   3.359746   2.496822
    30  H    2.731504   3.642653   1.842952   2.486097   2.684015
                    6          7          8          9         10
     6  H    0.000000
     7  O    1.996697   0.000000
     8  C    3.778625   2.454026   0.000000
     9  H    4.806104   3.353746   1.090327   0.000000
    10  N    4.165635   3.053065   1.453472   2.054408   0.000000
    11  H    3.714857   3.056526   2.115250   2.939342   1.009401
    12  C    5.385417   4.054917   2.458302   2.552251   1.363652
    13  O    6.115575   4.515624   2.784173   2.420898   2.265213
    14  C    6.110713   5.060778   3.809347   4.031404   2.439023
    15  H    5.657012   4.940195   4.007400   4.475474   2.557147
    16  H    6.976525   5.971517   4.401022   4.441815   3.099311
    17  H    6.611634   5.425406   4.467452   4.651489   3.201756
    18  C    3.442829   2.909398   1.543965   2.150531   2.466159
    19  H    4.175856   3.833654   2.135562   2.543322   2.539287
    20  O    4.220752   3.672908   2.458590   2.571371   3.683100
    21  H    3.876651   3.407421   2.869342   3.098668   4.196895
    22  C    2.114681   2.480665   2.540961   3.462221   3.119867
    23  H    2.584404   3.384973   3.467143   4.254367   4.126682
    24  O    2.375460   3.020844   3.070719   4.075215   2.948098
    25  H    3.229518   3.934877   3.570875   4.454354   3.360496
    26  C    2.108871   2.465702   3.933410   4.662924   4.941100
    27  H    2.403432   2.636678   4.572266   5.295813   5.511496
    28  H    2.389178   3.378727   4.692762   5.447144   5.624828
    29  O    3.375869   3.095943   3.837582   4.261335   5.124233
    30  H    3.640807   2.793947   3.472601   3.778137   4.808178
                   11         12         13         14         15
    11  H    0.000000
    12  C    2.065962   0.000000
    13  O    3.159672   1.221158   0.000000
    14  C    2.585556   1.514422   2.395720   0.000000
    15  H    2.259542   2.190873   3.296204   1.090644   0.000000
    16  H    3.303117   2.130557   2.749020   1.091655   1.775636
    17  H    3.388179   2.131773   2.663043   1.090012   1.779870
    18  C    2.654635   3.694045   4.168841   4.842937   4.805935
    19  H    2.632311   3.662080   4.241653   4.624314   4.545742
[...]
 0008196,-0.00001560,-0.00005055,-0.00003170,-0.00004535,-0.00008675,0.
 02704020,-0.00068770,0.02379060,0.00180278,0.00310686,-0.00067504,0.00
 500555,-0.00804638,0.00626868,-0.00226435,-0.00196745,0.00002219,0.018
 25609,-0.06618249,0.01961362,-0.01187577,0.00905970,-0.00691347,-0.062
 56878,0.07064502,-0.00034536,0.00052154,-0.00040348,-0.00019264,-0.000
 02815,0.00023847,0.00040691,0.00003466,0.00071121,0.00012742,-0.000106
 15,-0.00022747,0.01199628,-0.00306826,0.01038234,0.00024880,-0.0008802
 1,0.00139687,-0.00044181,0.00090192,0.00232456,-0.00124544,0.00067290,
 -0.00211736,0.00012882,0.00022731,0.00036734,-0.00047832,-0.00351603,-
 0.00074578,0.00049246,0.00244067,0.00088766,0.00057119,0.00120671,0.00
 167457,0.00078489,-0.00150295,-0.00011142,-0.00005290,0.00026481,0.000
 00918,0.00013694,-0.00002795,0.00007749,0.00003002,-0.00006357,0.00001
 973,0.00002753,-0.00003436,-0.00000743,-0.01835096,0.00557113,-0.01293
 402,-0.00059659,-0.00212120,0.00019909,-0.00307308,0.00764853,-0.00103
 929,0.00236346,-0.00001908,-0.00030924,-0.02254667,0.00972705,-0.13414
 802,-0.03375291,0.01052559,-0.01995045,-0.13899058,-0.02451597,0.35857
 430,-0.00027399,0.00009261,-0.00007268,0.00006568,0.00003508,-0.000051
 73,0.00014316,-0.00004222,-0.00001231,-0.00006426,0.00004260,0.0000421
 6,-0.00518859,0.00012682,-0.00537262,0.00022829,0.00036140,-0.00042412
 ,0.00080162,-0.00009409,-0.00016365,0.00004140,-0.00003570,0.00044039,
 0.00006562,-0.00005264,-0.00008980,-0.00017706,-0.00087926,-0.00042034
 ,0.00043992,0.00074941,0.00033538,0.00031052,0.00058067,0.00046079,-0.
 00004875,-0.00034687,-0.00018111,-0.00003955,-0.00013598,-0.00002741,0
 .00001280,0.00004110,-0.00004409,-0.00002232,-0.00002157,-0.00002294,-
 0.00002933,0.00002507,-0.00001368,0.00041643,0.00093845,0.00016143,0.0
 0044523,0.00068685,-0.00019504,0.00105128,-0.00094172,0.00056089,-0.00
 049607,-0.00016452,0.00012316,-0.02780196,0.00060688,0.02029763,0.0024
 8591,-0.00131704,0.00036249,-0.35042715,0.02900882,0.20095626,0.378750
 43,0.00032908,0.00084512,0.00000063,-0.00008400,-0.00006150,0.00005274
 ,-0.00031554,-0.00011727,-0.00002974,0.00011337,-0.00005545,-0.0000116
 8,-0.00139551,-0.00049808,0.00020573,-0.00013617,0.00035478,-0.0001874
 8,0.00002133,-0.00033373,0.00003501,-0.00022349,-0.00007936,0.00004274
 ,-0.00005435,-0.00000161,-0.00003478,-0.00054344,-0.00021752,0.0009535
 3,0.00150278,-0.00004623,-0.00149365,-0.00021308,-0.00119994,-0.000492
 20,-0.00019559,0.00066913,0.00003728,0.00005032,-0.00002607,0.00007016
 ,-0.00001320,0.00002787,-0.00009709,0.00001240,-0.00001125,-0.00001118
 ,-0.00002264,0.00004025,0.00002506,0.00400175,0.00094205,-0.00037512,-
 0.00099891,-0.00117757,0.00107301,-0.00159478,-0.00054956,-0.00042571,
 0.00009479,0.00051374,-0.00012283,0.00642690,-0.00242314,-0.00459828,-
 0.00059251,0.00095290,0.00053692,0.02375398,-0.00493173,-0.00463357,-0
 .02927957,0.00716455,-0.00011550,0.00007629,-0.00015558,0.00004615,0.0
 0001782,-0.00003887,-0.00000606,-0.00006981,0.00001376,0.00000994,0.00
 000108,0.00002798,-0.00302263,0.00127736,-0.00252108,-0.00007464,-0.00
 033965,0.00014220,0.00004591,0.00009137,0.00046241,0.00054968,0.000156
 71,0.00009064,-0.00005682,0.00001463,-0.00000622,-0.00037901,-0.000256
 78,0.00017216,0.00118488,-0.00015640,-0.00066930,0.00007250,-0.0001604
 4,0.00011311,-0.00013843,0.00016768,-0.00011890,0.00001869,-0.00014073
 ,0.00001031,-0.00001972,0.00003126,-0.00006840,-0.00001256,0.00000872,
 -0.00000847,-0.00002365,0.00004009,-0.00000034,-0.00196859,-0.00090164
 ,0.00020245,0.00056717,0.00052844,-0.00003157,0.00020325,0.00030949,-0
 .00070033,0.00001974,-0.00002081,0.00013461,-0.02750869,0.00378047,0.0
 1054378,-0.00110990,-0.00035116,0.00057288,0.25017751,-0.01305251,-0.2
 0415541,-0.21772217,0.00953095,0.19535004,0.00356668,-0.00530127,0.004
 56150,-0.00040443,0.00110140,-0.00044007,-0.00224117,-0.00132168,-0.00
 320231,-0.00030057,0.00016419,-0.00002142,-0.14495304,-0.03136301,-0.0
 3489047,-0.00611081,-0.00083357,-0.00308638,0.00949748,0.00864575,0.00
 589272,-0.00062978,0.00025426,-0.00057097,0.00020300,0.00022595,-0.000
 03024,0.00003250,0.00028822,-0.00007749,-0.00015943,-0.00013024,0.0000
 4977,-0.00009903,-0.00047615,-0.00024184,-0.00002233,0.00031499,0.0000
 2848,0.00001758,0.00000515,0.00001970,-0.00001771,-0.00000002,0.000000
 51,0.00000950,0.00000838,-0.00000221,-0.00000270,-0.00000989,0.0000048
 9,0.00126339,-0.00130102,0.00227676,-0.00026022,0.00043991,-0.00032912
 ,-0.00518305,-0.00171783,-0.00077787,0.00722908,0.00101011,0.00077492,
 -0.02340990,-0.00577874,-0.01222186,-0.00010520,-0.00036860,-0.0011185
 8,-0.00261641,-0.00037263,0.00187215,-0.00052626,-0.00042629,-0.000715
 18,0.51308744,-0.00689604,0.00540248,-0.00860655,0.00062977,-0.0013275
 0,0.00081377,0.00291286,0.00280826,0.00436565,0.00035560,0.00009453,0.
 00037725,-0.02246101,-0.08514884,-0.00369103,0.02115683,0.00604737,0.0
 1518802,-0.01780004,-0.02350945,-0.02725171,0.00032619,-0.00109943,0.0
 0009003,-0.00024593,-0.00030134,0.00007072,0.00020143,0.00014705,0.000
 57070,0.00017984,0.00011975,-0.00005082,0.00004373,-0.00019508,-0.0000
 9469,-0.00000230,0.00001165,0.00010883,0.00002417,0.00005441,0.0000373
 4,0.00001530,-0.00001120,-0.00000908,0.00000978,-0.00000423,0.00000975
 ,0.00001147,0.00001395,0.00001694,-0.00342252,0.00031504,-0.00353232,0
 .00033121,-0.00018341,0.00033577,0.00563777,0.00229728,0.00097169,-0.0
 0616082,-0.00571101,0.00367982,-0.01021680,-0.00244730,-0.00405851,0.0
 0109628,0.00054843,-0.00102448,-0.00017932,-0.00060766,0.00077226,0.00
 000198,0.00061839,-0.00048143,-0.01766015,0.54947239,0.00151838,-0.001
 86801,0.00099162,-0.00023401,-0.00009216,-0.00014929,-0.00232553,-0.00
 278761,-0.00436666,-0.00004973,0.00043151,0.00002682,-0.02647661,-0.01
 271999,-0.09641756,-0.01645642,-0.00242076,-0.01021571,-0.01412924,-0.
 01652287,-0.02161391,0.00008033,0.00001385,-0.00069112,-0.00000485,0.0
 0030847,0.00012093,-0.00045594,0.00015068,0.00002065,-0.00000333,-0.00
 050090,-0.00028033,0.00008382,-0.00027477,-0.00009741,-0.00023587,0.00
 026180,-0.00003799,0.00000285,-0.00005096,-0.00002883,-0.00003122,0.00
 001994,-0.00001620,-0.00000646,0.00000815,-0.00000813,-0.00001054,0.00
 000146,-0.00000363,0.00431583,-0.00152031,0.00207676,-0.00018749,0.000
 81136,-0.00038565,-0.00509169,-0.00158789,-0.00112399,0.00425164,0.004
 53270,-0.00304669,0.00650654,0.00546265,0.01655401,0.00095968,-0.00068
 414,0.00021748,0.00665849,0.00095570,-0.00209801,0.00182746,-0.0000412
 9,0.00066867,-0.08981828,0.04658321,0.52467723,-0.00001514,-0.00063836
 ,0.00011896,0.00002871,-0.00000880,-0.00001387,-0.00006767,0.00011720,
 -0.00017807,0.00000182,0.00001685,0.00004323,-0.02445964,-0.00576622,0
 .01703946,0.00031259,0.00042768,0.00004874,0.00300131,0.00134763,0.000
 31815,-0.00005169,0.00016608,0.00011805,0.00007600,-0.00003872,-0.0000
 7880,0.00008101,-0.00014279,-0.00017394,-0.00003890,0.00013820,0.00013
 027,0.00000113,0.00020597,0.00010866,0.00005781,-0.00013349,-0.0000391
 6,-0.00001290,-0.00000273,-0.00000688,0.00000261,-0.00000220,0.0000102
 9,-0.00000309,-0.00000012,-0.00000184,-0.00000012,-0.00000705,-0.00000
 628,-0.00057928,0.00063989,-0.00011418,0.00000144,-0.00021978,0.000102
 15,0.00082461,-0.00004348,0.00021360,-0.00083852,-0.00014996,-0.000043
 00,-0.00065591,-0.00097191,-0.00408823,0.00029401,0.00011110,-0.000367
 36,-0.00200705,-0.00028098,0.00026244,-0.00032184,-0.00007610,-0.00024
 857,-0.19393771,-0.04461718,0.11784851,0.20771586,0.00000602,-0.000794
 29,0.00021217,-0.00004192,0.00001952,-0.00002521,-0.00006282,-0.000115
 14,-0.00060249,0.00002606,0.00003033,0.00005581,-0.01211755,-0.0022428
 7,0.00482758,0.00044602,0.00024424,-0.00050801,0.00121962,0.00117102,0
 .00139080,-0.00009016,0.00016349,-0.00004711,0.00003324,0.00003717,0.0
 0000227,0.00005385,-0.00003396,-0.00010128,-0.00002702,0.00001617,0.00
 003583,-0.00002654,0.00002385,0.00000204,0.00002711,-0.00001006,-0.000
 01100,-0.00000271,-0.00000308,0.00000269,-0.00000072,-0.00000113,0.000
 00292,-0.00000020,0.00000083,-0.00000136,-0.00000099,-0.00000289,-0.00
 000164,0.00052039,-0.00005960,0.00074797,-0.00003667,0.00006695,-0.000
 09938,-0.00138502,-0.00050088,-0.00039624,0.00201099,0.00090172,-0.000
 05950,-0.00011603,0.00077744,-0.00227329,-0.00015853,0.00009798,0.0004
 1139,-0.00076956,0.00015260,0.00040685,-0.00020735,-0.00004778,-0.0001
 0074,-0.04093961,-0.06352894,0.02895725,0.04626938,0.07009080,-0.00022
 189,0.00012307,-0.00021032,0.00004117,-0.00001752,0.00003663,0.0002019
 7,0.00030286,0.00057086,0.00002951,-0.00004800,-0.00002012,-0.01552833
 ,-0.00605068,0.00965198,0.00091768,0.00025706,0.00112640,0.00027635,0.
 00106864,0.00145569,-0.00006331,0.00003231,0.00006187,0.00001643,-0.00
 004694,-0.00003052,0.00007059,0.00004833,0.00008311,0.00000293,0.00006
 777,0.00003576,-0.00002412,-0.00006660,-0.00003475,0.00002838,0.000019
 43,0.00002523,0.00000819,0.00001628,0.00001017,0.00000319,-0.00000391,
 0.00000174,0.00000442,-0.00000007,0.00000194,0.00000134,-0.00000107,0.
 00000294,-0.00076428,0.00034189,-0.00049240,0.00005577,-0.00017697,0.0
 0012413,0.00161349,0.00047029,0.00049719,-0.00214537,-0.00117248,0.000
 27839,-0.00134673,-0.00164906,-0.00262932,-0.00010259,0.00020006,0.000
 10195,-0.00088938,-0.00012515,0.00045810,-0.00031140,0.00004682,-0.000
 11342,0.11775958,0.03286060,-0.14126324,-0.12264146,-0.04694220,0.1613
 6183,-0.00101637,0.00137330,-0.00154929,0.00012254,-0.00039555,0.00019
 165,0.00067474,0.00024405,0.00088681,0.00006860,-0.00005629,-0.0000165
 2,0.00662924,-0.01966973,-0.01262799,0.00114317,0.00057879,0.00034806,
 -0.00317293,-0.00415211,-0.00415963,0.00017630,-0.00003198,-0.00011657
 ,-0.00005816,-0.00000823,0.00005181,-0.00002149,0.00001140,0.00009149,
 0.00004931,-0.00003680,-0.00005134,0.00002159,-0.00002725,-0.00000557,
 -0.00002970,0.00001141,0.00001358,0.00000322,0.00000065,0.00000043,0.0
 0000013,0.00000124,-0.00000358,0.00000011,-0.00000044,0.00000035,0.000
 00029,0.00000318,0.00000188,-0.00011786,0.00006115,-0.00026278,0.00001
 502,-0.00000080,0.00002936,0.00029645,0.00022629,0.00008929,-0.0003973
 5,-0.00033592,0.00007713,0.00038017,-0.00052434,0.00004481,-0.00058104
 ,-0.00026247,0.00027304,0.00036446,0.00026303,0.00020705,-0.00001564,0
 .00000310,-0.00001013,-0.06593742,0.04655508,0.03663268,-0.00453073,0.
 01913904,0.01412988,0.06966663,0.00040858,0.00083039,0.00000931,-0.000
 01830,0.00000286,-0.00001011,-0.00041414,-0.00031062,-0.00053241,0.000
 01183,-0.00004371,0.00000609,0.00273117,-0.00864677,-0.00680605,-0.000
 49549,0.00075874,-0.00007765,-0.00167727,0.00005531,-0.00159104,0.0000
 5873,0.00013068,-0.00008116,-0.00004098,0.00004398,0.00004759,-0.00013
 461,-0.00002773,0.00004017,0.00003565,-0.00006520,-0.00006015,0.000045
 24,0.00004567,0.00004016,-0.00004597,-0.00000905,-0.00000782,-0.000002
 23,-0.00000996,-0.00001317,-0.00000220,0.00000495,-0.00000345,-0.00000
 278,-0.00000109,-0.00000054,-0.00000109,0.00000286,-0.00000130,0.00014
 873,-0.00015310,0.00037222,-0.00004873,0.00000342,-0.00000745,-0.00062
 494,0.00007820,0.00010039,0.00085981,0.00002242,-0.00045140,0.00075545
 ,-0.00013844,-0.00097754,-0.00050111,0.00026735,0.00071892,0.00014747,
 0.00031151,0.00045276,-0.00011463,-0.00007939,-0.00003193,0.04605464,-
 0.20528115,-0.11208324,-0.00131233,0.00776209,0.00303197,-0.05869160,0
 .23463975,-0.00086239,0.00211697,-0.00143859,0.00010552,-0.00036767,0.
 00016518,0.00080149,0.00012556,0.00117181,0.00002285,-0.00001243,-0.00
 004061,0.00704173,-0.01216406,-0.00803557,0.00020964,0.00017829,-0.000
 28414,-0.00365017,-0.00348814,-0.00197222,0.00016124,-0.00007609,0.000
 03990,-0.00010856,-0.00001154,0.00007637,-0.00009162,-0.00007648,0.000
 03733,0.00007030,-0.00003998,-0.00006036,0.00006966,0.00011535,0.00007
 842,-0.00004462,-0.00005986,-0.00001196,-0.00000584,-0.00001284,-0.000
 01487,0.00000020,0.00000533,-0.00000281,-0.00000491,-0.00000197,-0.000
 00019,0.00000030,0.00000465,-0.00000161,0.00011557,-0.00012292,0.00002
 350,-0.00001105,0.00005106,0.00003292,0.00003021,0.00004885,-0.0000199
 5,-0.00011808,0.00000699,0.00015430,0.00052233,0.00038352,-0.00021254,
 -0.00012732,0.00023081,0.00069385,-0.00000788,0.00027049,0.00022243,-0
 .00005733,-0.00005136,0.00000799,0.03819093,-0.12192359,-0.13199942,0.
 00359607,-0.01461956,-0.00937700,-0.03394605,0.11881193,0.14145824,-0.
 00267966,0.00318773,-0.00088812,0.00060229,-0.00036965,0.00019218,0.00
 583388,-0.00195985,0.00040138,0.00017150,-0.00018717,0.00013825,-0.007
 65824,0.03165113,-0.02192884,-0.00484112,-0.00226222,-0.00458045,0.002
 70066,-0.00357195,0.00127010,-0.00002264,0.00021634,0.00054966,-0.0001
 0361,0.00003630,0.00011732,0.00038707,-0.00093873,-0.00110388,-0.00000
 847,0.00021353,0.00023386,-0.00004956,0.00128087,0.00048225,0.00026633
 ,-0.00071656,-0.00018781,-0.00008744,-0.00009326,-0.00002852,0.0000206
 6,-0.00000138,0.00002335,-0.00003339,-0.00001027,-0.00001327,-0.000002
 09,-0.00000329,-0.00002773,0.00305156,-0.00048087,0.00482740,-0.000471
 81,0.00003881,-0.00052311,-0.01257881,-0.01133581,0.00302845,-0.003652
 45,0.00581995,-0.00573610,0.00409668,0.00067301,0.00101269,-0.00004733
 ,-0.00019571,0.00009581,-0.00069695,0.00023555,-0.00068279,0.00022851,
 -0.00023178,0.00023322,-0.08247218,0.03711546,-0.03127294,0.01395541,-
 0.01256510,0.00918740,-0.00399573,0.01229202,-0.01016604,0.14593227,0.
 00725357,-0.00916234,0.00629272,-0.00136680,0.00096892,-0.00095294,-0.
 00661612,-0.01195854,-0.01439287,-0.00094315,0.00076419,-0.00202184,0.
 00658244,-0.00292586,-0.00020750,-0.00082184,0.00165195,-0.00072126,-0
 .00049724,0.01034233,0.00213550,-0.00005693,0.00091313,-0.00076597,0.0
 0021939,0.00053424,0.00001365,-0.00079548,-0.00037086,-0.00067189,-0.0
 0013817,-0.00047635,-0.00009491,0.00024108,0.00057477,0.00037151,-0.00
 026821,-0.00016778,-0.00021559,-0.00005408,-0.00012523,-0.00011899,-0.
 00003862,0.00003738,0.00000120,-0.00003378,0.00000629,-0.00001745,-0.0
 0001793,-0.00000762,-0.00003314,0.00424298,-0.00207523,0.00546698,-0.0
 0081850,0.00072931,-0.00091192,-0.01549064,-0.00385667,0.00089012,0.00
 990538,-0.00109262,-0.00507703,-0.00114749,-0.00031598,0.00147844,-0.0
 0031811,-0.00002323,0.00025409,0.00123820,0.00152564,-0.00065099,0.000
 39318,-0.00039317,0.00002758,0.03588698,-0.14661276,0.07378065,0.00574
 984,-0.01579957,0.01932315,0.01559049,-0.02910409,0.02736835,-0.167057
 94,0.49069642,0.00242736,0.00062459,0.00015639,-0.00036799,-0.00010143
 ,-0.00005686,-0.00141246,-0.01157706,-0.00188477,-0.00074934,-0.000835
 76,-0.00285039,-0.01214901,0.02525667,-0.01809603,-0.00458357,-0.00177
 986,-0.00163035,0.00121780,-0.00128440,0.00277309,0.00058734,-0.000143
 56,0.00016610,-0.00004856,-0.00017101,-0.00012384,-0.00051300,-0.00003
 037,0.00055379,0.00015337,0.00016726,-0.00010206,0.00019045,0.00022821
 ,0.00021106,-0.00011395,-0.00020494,0.00004367,0.00000909,0.00003669,-
 0.00004483,0.00001906,0.00000242,-0.00001000,-0.00000117,-0.00001162,0
 .00001139,0.00000423,0.00001563,0.00000033,-0.00308691,0.00131119,-0.0
 0433371,0.00051551,-0.00047539,0.00083555,0.00931664,0.00470087,0.0042
 6486,-0.00652484,-0.00471664,-0.00276309,0.00244848,-0.00080317,-0.001
 38775,-0.00045049,0.00039541,0.00053304,-0.00072044,-0.00066109,0.0009
 8502,-0.00037151,-0.00005948,0.00006338,-0.01264007,0.03737588,-0.1470
 5023,-0.01224156,0.02745657,-0.02133383,0.00226580,-0.00554128,0.01263
 312,-0.02444659,0.08559236,0.35530149,-0.00193195,-0.00211619,-0.00296
 813,0.00002079,-0.00001513,0.00021471,-0.00380029,0.00445024,0.0017859
 5,0.00046749,0.00001745,0.00081922,-0.00074333,0.00173707,0.00089527,0
 .00037009,-0.00035666,0.00012517,0.00039420,-0.00064271,0.00013769,-0.
 00057271,-0.00027461,-0.00041540,0.00002568,-0.00008766,-0.00002372,0.
 00010968,0.00046556,0.00041953,-0.00001564,-0.00000012,-0.00002133,-0.
 00006289,-0.00068410,-0.00031978,-0.00001419,0.00037349,0.00011401,0.0
 0004015,0.00005691,0.00004996,-0.00000299,-0.00000777,-0.00000646,0.00
 002085,0.00000492,0.00000694,0.00000642,-0.00000028,0.00001874,-0.0014
 8393,0.00005964,-0.00090282,0.00024214,-0.00000483,0.00010262,0.001784
 65,-0.00068171,-0.00058972,-0.00449574,0.00143867,0.00478299,-0.000752
 29,0.00049100,0.00014662,0.00016705,-0.00004911,-0.00011479,0.00038700
 ,-0.00032753,0.00013742,-0.00005406,0.00008713,0.00000359,-0.00551733,
 0.01305734,0.00610393,0.00116588,-0.00120321,-0.00030941,0.00026248,0.
 00057907,-0.00173617,-0.05784532,0.10917754,0.06126630,0.07182811,-0.0
 0865831,0.01026558,-0.00399371,0.00196904,-0.00076156,0.00120950,0.008
 55230,-0.00534563,0.00452836,0.00048118,-0.00201579,0.00027813,-0.0000
 0702,0.00517486,0.00132024,-0.00077655,-0.00043686,-0.00066131,0.00061
 775,-0.00518536,-0.00042952,-0.00031788,-0.00045955,0.00079472,-0.0002
 0237,-0.00033570,0.00013910,0.00129924,0.00004859,-0.00024143,0.000014
 39,0.00033898,0.00023603,-0.00037022,-0.00025379,-0.00032551,0.0003967
 6,0.00007751,0.00009370,0.00000677,0.00004232,0.00012594,0.00002654,-0
 .00003158,0.00001300,0.00001787,-0.00000057,0.00000185,0.00001188,-0.0
 0000463,0.00001983,-0.00007113,0.00077946,0.00093280,0.00006124,-0.000
 26407,-0.00015749,-0.00154221,-0.00314140,-0.00080086,0.00141275,0.005
 56507,0.00068843,0.00101448,0.00016777,-0.00032856,0.00025502,-0.00023
 418,-0.00024011,-0.00076465,-0.00049859,-0.00020624,-0.00005779,0.0001
 2158,0.00000407,0.01360077,-0.03198169,-0.00912448,-0.00077760,0.00158
 398,-0.00190989,0.00013130,-0.00108989,0.00331035,0.10922087,-0.284276
 68,-0.15476671,-0.12554443,0.31215182,-0.00678523,0.00338816,-0.004358
 80,0.00088969,-0.00042013,0.00061942,0.00283573,0.00121384,-0.00433934
 ,0.00217197,0.00065590,0.00365153,-0.00218287,0.00442318,0.00192067,-0
 .00016219,-0.00048211,-0.00045525,0.00216665,-0.00362569,-0.00038379,-
 0.00021574,-0.00026425,0.00059800,-0.00005666,-0.00013667,0.00013703,0
 .00105422,0.00009955,-0.00029317,-0.00005894,0.00017977,0.00019832,-0.
 00027461,-0.00031371,-0.00027835,0.00026444,0.00015346,0.00002796,-0.0
 0000219,0.00002767,0.00009425,0.00000911,-0.00002041,0.00001145,0.0000
 1378,0.00000362,-0.00000169,0.00000715,-0.00000931,0.00001370,0.000701
 88,0.00032828,0.00199810,-0.00008500,-0.00012731,-0.00031677,-0.002201
 97,-0.00055888,-0.00101581,0.00519094,0.00009323,-0.00151160,0.0003409
 4,-0.00019482,-0.00028159,0.00023736,-0.00014271,-0.00020702,-0.000365
 69,-0.00009227,-0.00028099,-0.00001411,0.00005487,0.00001152,-0.011247
 56,0.02649597,0.01553985,0.00028462,0.00127689,-0.00038099,-0.00258564
 ,0.00464618,-0.00332350,0.07979287,-0.19614201,-0.17686455,-0.06972294
 ,0.15948974,0.16947141\\0.00000062,-0.00000040,0.00000117,0.00000080,-
 0.00000094,0.00000131,0.00000006,0.00000059,0.00000145,0.00000032,0.00
 000091,0.00000250,0.00000006,0.00000032,-0.00000111,-0.00000029,-0.000
 00016,-0.00000223,-0.00000074,-0.00000018,-0.00000041,0.00000045,0.000
 00022,0.00000075,0.00000024,0.00000052,0.00000179,-0.00000009,-0.00000
 145,0.00000003,0.00000057,-0.00000105,-0.00000029,0.00000115,-0.000001
 52,0.00000156,0.00000138,-0.00000136,0.00000269,0.00000130,-0.00000333
 ,0.00000071,0.00000112,-0.00000283,0.00000006,0.00000137,-0.00000257,0
 .00000152,0.00000170,-0.00000340,0.00000140,0.00000019,0.00000093,0.00
 000074,-0.00000063,0.00000089,-0.00000042,-0.00000126,0.00000299,-0.00
 000027,-0.00000078,0.00000217,0.00000012,-0.00000025,0.00000035,-0.000
 00171,-0.00000126,0.00000158,-0.00000190,-0.00000076,-0.00000022,-0.00
 000234,-0.00000065,0.00000005,-0.00000229,-0.00000116,0.00000092,-0.00
 000140,-0.00000061,0.00000103,-0.00000130,-0.00000136,0.00000189,-0.00
 000228,-0.00000078,0.00000235,-0.00000016,-0.00000072,0.00000169,0.000
 00030\\\@


 Until you make peace with who you are,
 you'll never be content with what you have.
                           -- Doris Mortman
 Job cpu time:  1 days  0 hours 41 minutes 49.0 seconds.
 File lengths (MBytes):  RWF=    839 Int=      0 D2E=      0 Chk=     25 Scr=      1
 Normal termination of Gaussian 09 at Sat Dec 22 22:15:55 2012.
