 Entering Gaussian System, Link 0=g09
 Initial command:
 /projects/nrel/apps/gaussian/g09/B.01/g09/l1.exe /scratch/hbmayes/nag_1c4_244relaxrelaxtsb3lyptsb3ltsircropt.2237989.scr/Gau-7014.inp -scrdir=/scratch/hbmayes/nag_1c4_244relaxrelaxtsb3lyptsb3ltsircropt.2237989.scr/
 Default is to use a total of   8 processors:
                                8 via shared-memory
                                1 via Linda
 Entering Link 1 = /projects/nrel/apps/gaussian/g09/B.01/g09/l1.exe PID=      7015.
  
 Copyright (c) 1988,1990,1992,1993,1995,1998,2003,2009,2010,
            Gaussian, Inc.  All Rights Reserved.
  
 This is part of the Gaussian(R) 09 program.  It is based on
 the Gaussian(R) 03 system (copyright 2003, Gaussian, Inc.),
 the Gaussian(R) 98 system (copyright 1998, Gaussian, Inc.),
 the Gaussian(R) 94 system (copyright 1995, Gaussian, Inc.),
 the Gaussian 92(TM) system (copyright 1992, Gaussian, Inc.),
 the Gaussian 90(TM) system (copyright 1990, Gaussian, Inc.),
 the Gaussian 88(TM) system (copyright 1988, Gaussian, Inc.),
 the Gaussian 86(TM) system (copyright 1986, Carnegie Mellon
 University), and the Gaussian 82(TM) system (copyright 1983,
 Carnegie Mellon University). Gaussian is a federally registered
 trademark of Gaussian, Inc.
  
 This software contains proprietary and confidential information,
 including trade secrets, belonging to Gaussian, Inc.
  
 This software is provided under written license and may be
 used, copied, transmitted, or stored only in accord with that
 written license.
  
 The following legend is applicable only to US Government
 contracts under FAR:
  
                    RESTRICTED RIGHTS LEGEND
  
 Use, reproduction and disclosure by the US Government is
 subject to restrictions as set forth in subparagraphs (a)
 and (c) of the Commercial Computer Software - Restricted
 Rights clause in FAR 52.227-19.
  
 Gaussian, Inc.
 340 Quinnipiac St., Bldg. 40, Wallingford CT 06492
  
  
 ---------------------------------------------------------------
 Warning -- This program may not be used in any manner that
 competes with the business of Gaussian, Inc. or will provide
 assistance to any competitor of Gaussian, Inc.  The licensee
 of this program is prohibited from giving any competitor of
 Gaussian, Inc. access to this program.  By using this program,
 the user acknowledges that Gaussian, Inc. is engaged in the
 business of creating and licensing software in the field of
 computational chemistry and represents and warrants to the
 licensee that it is not a competitor of Gaussian, Inc. and that
 it will not use this program in any manner prohibited above.
 ---------------------------------------------------------------
  

 Cite this work as:
 Gaussian 09, Revision B.01,
 M. J. Frisch, G. W. Trucks, H. B. Schlegel, G. E. Scuseria, 
 M. A. Robb, J. R. Cheeseman, G. Scalmani, V. Barone, B. Mennucci, 
 G. A. Petersson, H. Nakatsuji, M. Caricato, X. Li, H. P. Hratchian, 
 A. F. Izmaylov, J. Bloino, G. Zheng, J. L. Sonnenberg, M. Hada, 
 M. Ehara, K. Toyota, R. Fukuda, J. Hasegawa, M. Ishida, T. Nakajima, 
 Y. Honda, O. Kitao, H. Nakai, T. Vreven, J. A. Montgomery, Jr., 
 J. E. Peralta, F. Ogliaro, M. Bearpark, J. J. Heyd, E. Brothers, 
 K. N. Kudin, V. N. Staroverov, T. Keith, R. Kobayashi, J. Normand, 
 K. Raghavachari, A. Rendell, J. C. Burant, S. S. Iyengar, J. Tomasi, 
 M. Cossi, N. Rega, J. M. Millam, M. Klene, J. E. Knox, J. B. Cross, 
 V. Bakken, C. Adamo, J. Jaramillo, R. Gomperts, R. E. Stratmann, 
 O. Yazyev, A. J. Austin, R. Cammi, C. Pomelli, J. W. Ochterski, 
 R. L. Martin, K. Morokuma, V. G. Zakrzewski, G. A. Voth, 
 P. Salvador, J. J. Dannenberg, S. Dapprich, A. D. Daniels, 
 O. Farkas, J. B. Foresman, J. V. Ortiz, J. Cioslowski, 
 and D. J. Fox, Gaussian, Inc., Wallingford CT, 2010.
 
 ******************************************
 Gaussian 09:  EM64L-G09RevB.01 12-Aug-2010
                 1-Nov-2012 
 ******************************************
 %RWF=/dev/shm/,2GB,/scratch/hbmayes/nag_1c4_244relaxrelaxtsb3lyptsb3ltsircropt.2
 237989.scr/,-1
 %NoSave
 %CHK=/scratch/hbmayes/nag/nag_1c4_244relaxrelaxtsb3lyptsb3ltsircropt.chk
 %mem=10GB
 %nproc=8
 Will use up to    8 processors via shared memory.
 Default route:  MaxDisk=16GB
 ----------------------------------------------------------------------
 # opt=(ReadFC,Tight) Freq b3lyp/6-311+G(2df,p) nosymm Int=(Grid=Ultraf
 ine) scf=xqc guess=read geom=allcheck
 ----------------------------------------------------------------------
 1/7=10,10=3,14=-1,18=20,19=15,26=3,29=7,38=1/1,3;
 2/9=110,12=2,15=1,40=1/2;
 3/5=4,6=6,7=114,11=2,14=-4,16=1,25=1,30=1,71=1,74=-5,75=-5,116=-2/1,2,3;
 4/5=1/1;
 5/5=2,8=3,13=1,38=6/2,8;
 6/7=2,8=2,9=2,10=2,28=1/1;
 7/30=1/1,2,3,16;
 1/7=10,14=-1,18=20,19=15/3(2);
 2/9=110,15=1/2;
 99//99;
 2/9=110,15=1/2;
 3/5=4,6=6,7=114,11=2,14=-2,16=1,25=1,30=1,71=1,74=-5,75=-5/1,2,3;
 4/5=5,16=3/1;
 5/5=2,8=3,13=1,38=5/2,8;
 7/30=1/1,2,3,16;
 1/7=10,14=-1,18=20,19=15/3(-5);
 2/9=110,15=1/2;
 6/7=2,8=2,9=2,10=2,19=2,28=1/1;
 99/9=1/99;
 -----
 again
 -----
 Redundant internal coordinates taken from checkpoint file:
 /scratch/hbmayes/nag/nag_1c4_244relaxrelaxtsb3lyptsb3ltsircropt.chk
 Charge =  0 Multiplicity = 1
 C,0,-0.84614,0.88686,0.092456
 H,0,-1.194384,1.370547,1.003666
 O,0,-1.889669,0.952101,-0.883086
 H,0,-2.40833,1.748623,-0.727125
 C,0,1.173372,1.099106,-1.287853
 H,0,2.074502,1.714702,-1.172337
 O,0,0.282861,1.634023,-0.297502
 C,0,-0.532055,-0.587706,0.408877
 H,0,-1.478867,-1.125232,0.430633
 N,0,0.070499,-0.676122,1.731828
 H,0,1.078069,-0.654737,1.782351
 C,0,-0.674392,-0.612327,2.868779
 O,0,-1.889789,-0.490167,2.848166
 C,0,0.097593,-0.712359,4.168953
 H,0,-0.275696,-1.571218,4.72847
 H,0,-0.101776,0.178543,4.766068
 H,0,1.174001,-0.81895,4.029422
 C,0,0.39693,-1.268523,-0.623428
 H,0,0.82218,-2.147692,-0.134464
 O,0,-0.286312,-1.749818,-1.75427
 H,0,-0.411612,-1.031977,-2.401837
 C,0,1.579228,-0.354325,-0.9909
 H,0,2.069529,-0.774708,-1.876089
 O,0,2.470292,-0.4129,0.132213
 H,0,3.196668,0.206223,0.004853
 C,0,0.70136,1.371399,-2.720684
 H,0,0.511369,2.446606,-2.811658
 H,0,1.513014,1.116117,-3.406337
 O,0,-0.431923,0.631777,-3.146482
 H,0,-1.172578,0.861757,-2.553982
 Recover connectivity data from disk.

 GradGradGradGradGradGradGradGradGradGradGradGradGradGradGradGradGradGrad
 Berny optimization.
 Initialization pass.
 Force constant matrix read from checkpoint file:
 /scratch/hbmayes/nag/nag_1c4_244relaxrelaxtsb3lyptsb3ltsircropt.chk
                           ----------------------------
                           !    Initial Parameters    !
                           ! (Angstroms and Degrees)  !
 --------------------------                            --------------------------
 ! Name  Definition              Value          Derivative Info.                !
 --------------------------------------------------------------------------------
 ! R1    R(1,2)                  1.0888         D2E/DX2 =    0.3397             !
 ! R2    R(1,3)                  1.43           D2E/DX2 =    0.2904             !
 ! R3    R(1,7)                  1.4089         D2E/DX2 =    0.2698             !
 ! R4    R(1,8)                  1.5405         D2E/DX2 =    0.2195             !
 ! R5    R(3,4)                  0.9632         D2E/DX2 =    0.5266             !
 ! R6    R(3,30)                 1.8205         D2E/DX2 =    0.0221             !
 ! R7    R(5,6)                  1.0974         D2E/DX2 =    0.3187             !
 ! R8    R(5,7)                  1.4352         D2E/DX2 =    0.2448             !
 ! R9    R(5,22)                 1.538          D2E/DX2 =    0.2045             !
 ! R10   R(5,26)                 1.533          D2E/DX2 =    0.2333             !
 ! R11   R(8,9)                  1.089          D2E/DX2 =    0.3418             !
 ! R12   R(8,10)                 1.4564         D2E/DX2 =    0.3276             !
 ! R13   R(8,18)                 1.5467         D2E/DX2 =    0.2199             !
 ! R14   R(10,11)                1.0091         D2E/DX2 =    0.4628             !
 ! R15   R(10,12)                1.3607         D2E/DX2 =    0.4365             !
 ! R16   R(12,13)                1.2217         D2E/DX2 =    0.7648             !
 ! R17   R(12,14)                1.5154         D2E/DX2 =    0.2714             !
 ! R18   R(14,15)                1.0909         D2E/DX2 =    0.3394             !
 ! R19   R(14,16)                1.0909         D2E/DX2 =    0.3392             !
 ! R20   R(14,17)                1.0906         D2E/DX2 =    0.3379             !
 ! R21   R(18,19)                1.0922         D2E/DX2 =    0.3311             !
 ! R22   R(18,20)                1.4062         D2E/DX2 =    0.362              !
 ! R23   R(18,22)                1.539          D2E/DX2 =    0.2293             !
 ! R24   R(20,21)                0.9749         D2E/DX2 =    0.4426             !
 ! R25   R(21,29)                1.8229         D2E/DX2 =    0.0226             !
 ! R26   R(22,23)                1.0958         D2E/DX2 =    0.3224             !
 ! R27   R(22,24)                1.4349         D2E/DX2 =    0.3089             !
 ! R28   R(24,25)                0.9629         D2E/DX2 =    0.5257             !
 ! R29   R(26,27)                1.0956         D2E/DX2 =    0.3237             !
 ! R30   R(26,28)                1.0927         D2E/DX2 =    0.3328             !
 ! R31   R(26,29)                1.4187         D2E/DX2 =    0.3413             !
 ! R32   R(29,30)                0.976          D2E/DX2 =    0.4459             !
 ! A1    A(2,1,3)              108.4968         D2E/DX2 =    0.0365             !
 ! A2    A(2,1,7)              104.6165         D2E/DX2 =    0.0328             !
 ! A3    A(2,1,8)              108.5742         D2E/DX2 =    0.0425             !
 ! A4    A(3,1,7)              111.824          D2E/DX2 =    0.0691             !
 ! A5    A(3,1,8)              109.4255         D2E/DX2 =    0.095              !
 ! A6    A(7,1,8)              113.6467         D2E/DX2 =    0.0501             !
 ! A7    A(1,3,4)              108.6757         D2E/DX2 =    0.175              !
 ! A8    A(6,5,7)              103.1665         D2E/DX2 =    0.0188             !
 ! A9    A(6,5,22)             107.0436         D2E/DX2 =    0.0269             !
 ! A10   A(6,5,26)             104.5712         D2E/DX2 =    0.0285             !
 ! A11   A(7,5,22)             112.502          D2E/DX2 =    0.0345             !
 ! A12   A(7,5,26)             112.8119         D2E/DX2 =    0.0371             !
 ! A13   A(22,5,26)            115.4414         D2E/DX2 =    0.0422             !
 ! A14   A(1,7,5)              119.3757         D2E/DX2 =    0.0517             !
 ! A15   A(1,8,9)              107.4167         D2E/DX2 =    0.0235             !
 ! A16   A(1,8,10)             109.2109         D2E/DX2 =    0.0572             !
 ! A17   A(1,8,18)             113.9985         D2E/DX2 =    0.0424             !
 ! A18   A(9,8,10)             108.156          D2E/DX2 =    0.021              !
 ! A19   A(9,8,18)             108.5591         D2E/DX2 =    0.0213             !
 ! A20   A(10,8,18)            109.3331         D2E/DX2 =    0.0636             !
 ! A21   A(8,10,11)            117.2138         D2E/DX2 =    0.0998             !
 ! A22   A(8,10,12)            121.9822         D2E/DX2 =    0.1328             !
 ! A23   A(11,10,12)           120.2505         D2E/DX2 =    0.0937             !
 ! A24   A(10,12,13)           122.3567         D2E/DX2 =    0.1986             !
 ! A25   A(10,12,14)           115.7797         D2E/DX2 =    0.1686             !
 ! A26   A(13,12,14)           121.8623         D2E/DX2 =    0.1594             !
 ! A27   A(12,14,15)           108.5243         D2E/DX2 =    0.0977             !
 ! A28   A(12,14,16)           108.8215         D2E/DX2 =    0.0987             !
 ! A29   A(12,14,17)           113.545          D2E/DX2 =    0.1057             !
 ! A30   A(15,14,16)           107.4392         D2E/DX2 =    0.0509             !
 ! A31   A(15,14,17)           109.0502         D2E/DX2 =    0.055              !
 ! A32   A(16,14,17)           109.2823         D2E/DX2 =    0.0553             !
 ! A33   A(8,18,19)            106.8212         D2E/DX2 =    0.0265             !
 ! A34   A(8,18,20)            113.3021         D2E/DX2 =    0.0611             !
 ! A35   A(8,18,22)            111.0575         D2E/DX2 =    0.0419             !
 ! A36   A(19,18,20)           105.8849         D2E/DX2 =    0.0195             !
 ! A37   A(19,18,22)           106.6152         D2E/DX2 =    0.027              !
 ! A38   A(20,18,22)           112.6167         D2E/DX2 =    0.0618             !
 ! A39   A(18,20,21)           110.159          D2E/DX2 =    0.2281             !
 ! A40   A(5,22,18)            113.8745         D2E/DX2 =    0.0405             !
 ! A41   A(5,22,23)            108.945          D2E/DX2 =    0.0271             !
 ! A42   A(5,22,24)            110.707          D2E/DX2 =    0.0576             !
 ! A43   A(18,22,23)           107.983          D2E/DX2 =    0.0272             !
 ! A44   A(18,22,24)           105.422          D2E/DX2 =    0.061              !
 ! A45   A(23,22,24)           109.8029         D2E/DX2 =    0.0211             !
 ! A46   A(22,24,25)           109.7974         D2E/DX2 =    0.1744             !
 ! A47   A(5,26,27)            107.7771         D2E/DX2 =    0.0735             !
 ! A48   A(5,26,28)            108.4381         D2E/DX2 =    0.0751             !
 ! A49   A(5,26,29)            115.715          D2E/DX2 =    0.1106             !
 ! A50   A(27,26,28)           107.8159         D2E/DX2 =    0.0253             !
 ! A51   A(27,26,29)           110.3757         D2E/DX2 =    0.063              !
 ! A52   A(28,26,29)           106.4529         D2E/DX2 =    0.0552             !
 ! A53   A(26,29,30)           107.5274         D2E/DX2 =    0.2247             !
 ! D1    D(2,1,3,4)             30.1751         D2E/DX2 =    0.02               !
 ! D2    D(7,1,3,4)            -84.6976         D2E/DX2 =    0.0196             !
 ! D3    D(8,1,3,4)            148.478          D2E/DX2 =    0.0149             !
 ! D4    D(2,1,7,5)            165.8641         D2E/DX2 =    0.027              !
 ! D5    D(3,1,7,5)            -76.903          D2E/DX2 =    0.0451             !
 ! D6    D(8,1,7,5)             47.5993         D2E/DX2 =    0.016              !
 ! D7    D(2,1,8,9)             79.1103         D2E/DX2 =    0.0139             !
 ! D8    D(2,1,8,10)           -37.964          D2E/DX2 =    0.0205             !
 ! D9    D(2,1,8,18)          -160.5717         D2E/DX2 =    0.0172             !
 ! D10   D(3,1,8,9)            -39.1444         D2E/DX2 =    0.0197             !
 ! D11   D(3,1,8,10)          -156.2187         D2E/DX2 =    0.029              !
 ! D12   D(3,1,8,18)            81.1736         D2E/DX2 =    0.0235             !
 ! D13   D(7,1,8,9)           -164.9292         D2E/DX2 =    0.0167             !
 ! D14   D(7,1,8,10)            77.9966         D2E/DX2 =    0.0284             !
 ! D15   D(7,1,8,18)           -44.6112         D2E/DX2 =    0.0168             !
 ! D16   D(6,5,7,1)           -163.7514         D2E/DX2 =    0.0197             !
 ! D17   D(22,5,7,1)           -48.7447         D2E/DX2 =    0.0155             !
 ! D18   D(26,5,7,1)            83.996          D2E/DX2 =    0.0213             !
 ! D19   D(6,5,22,18)          159.7521         D2E/DX2 =    0.0162             !
 ! D20   D(6,5,22,23)          -79.6582         D2E/DX2 =    0.0136             !
 ! D21   D(6,5,22,24)           41.1841         D2E/DX2 =    0.0211             !
 ! D22   D(7,5,22,18)           47.1163         D2E/DX2 =    0.0158             !
 ! D23   D(7,5,22,23)          167.706          D2E/DX2 =    0.0144             !
 ! D24   D(7,5,22,24)          -71.4517         D2E/DX2 =    0.0255             !
 ! D25   D(26,5,22,18)         -84.3203         D2E/DX2 =    0.0194             !
 ! D26   D(26,5,22,23)          36.2694         D2E/DX2 =    0.0152             !
 ! D27   D(26,5,22,24)         157.1117         D2E/DX2 =    0.0266             !
 ! D28   D(6,5,26,27)          -58.8916         D2E/DX2 =    0.0159             !
 ! D29   D(6,5,26,28)           57.569          D2E/DX2 =    0.0155             !
 ! D30   D(6,5,26,29)          177.0364         D2E/DX2 =    0.0184             !
 ! D31   D(7,5,26,27)           52.4947         D2E/DX2 =    0.0168             !
 ! D32   D(7,5,26,28)          168.9553         D2E/DX2 =    0.0179             !
 ! D33   D(7,5,26,29)          -71.5773         D2E/DX2 =    0.0233             !
 ! D34   D(22,5,26,27)        -176.2155         D2E/DX2 =    0.0178             !
 ! D35   D(22,5,26,28)         -59.755          D2E/DX2 =    0.0155             !
 ! D36   D(22,5,26,29)          59.7125         D2E/DX2 =    0.0214             !
 ! D37   D(1,8,10,11)          -92.9423         D2E/DX2 =    0.0106             !
 ! D38   D(1,8,10,12)           78.5396         D2E/DX2 =    0.0106             !
 ! D39   D(9,8,10,11)          150.4522         D2E/DX2 =    0.0093             !
 ! D40   D(9,8,10,12)          -38.0659         D2E/DX2 =    0.008              !
 ! D41   D(18,8,10,11)          32.416          D2E/DX2 =    0.0103             !
 ! D42   D(18,8,10,12)        -156.1021         D2E/DX2 =    0.0102             !
 ! D43   D(1,8,18,19)          160.4711         D2E/DX2 =    0.016              !
 ! D44   D(1,8,18,20)          -83.3261         D2E/DX2 =    0.022              !
 ! D45   D(1,8,18,22)           44.5904         D2E/DX2 =    0.0154             !
 ! D46   D(9,8,18,19)          -79.8534         D2E/DX2 =    0.0134             !
 ! D47   D(9,8,18,20)           36.3493         D2E/DX2 =    0.0184             !
 ! D48   D(9,8,18,22)          164.2658         D2E/DX2 =    0.0162             !
 ! D49   D(10,8,18,19)          37.9302         D2E/DX2 =    0.0185             !
 ! D50   D(10,8,18,20)         154.133          D2E/DX2 =    0.0254             !
 ! D51   D(10,8,18,22)         -77.9505         D2E/DX2 =    0.0241             !
 ! D52   D(8,10,12,13)           0.7018         D2E/DX2 =    0.0113             !
 ! D53   D(8,10,12,14)        -179.7177         D2E/DX2 =    0.0101             !
 ! D54   D(11,10,12,13)        171.9305         D2E/DX2 =    0.0105             !
 ! D55   D(11,10,12,14)         -8.4889         D2E/DX2 =    0.0076             !
 ! D56   D(10,12,14,15)       -121.0811         D2E/DX2 =    0.0137             !
 ! D57   D(10,12,14,16)        122.2951         D2E/DX2 =    0.0138             !
 ! D58   D(10,12,14,17)          0.3515         D2E/DX2 =    0.0154             !
 ! D59   D(13,12,14,15)         58.5017         D2E/DX2 =    0.0153             !
 ! D60   D(13,12,14,16)        -58.1221         D2E/DX2 =    0.0154             !
 ! D61   D(13,12,14,17)        179.9343         D2E/DX2 =    0.0148             !
 ! D62   D(8,18,20,21)          83.7206         D2E/DX2 =    0.0153             !
 ! D63   D(19,18,20,21)       -159.525          D2E/DX2 =    0.0182             !
 ! D64   D(22,18,20,21)        -43.3818         D2E/DX2 =    0.0148             !
 ! D65   D(8,18,22,5)          -46.1638         D2E/DX2 =    0.0148             !
 ! D66   D(8,18,22,23)        -167.2911         D2E/DX2 =    0.0157             !
 ! D67   D(8,18,22,24)          75.3844         D2E/DX2 =    0.0239             !
 ! D68   D(19,18,22,5)        -162.1718         D2E/DX2 =    0.0174             !
 ! D69   D(19,18,22,23)         76.701          D2E/DX2 =    0.0146             !
 ! D70   D(19,18,22,24)        -40.6236         D2E/DX2 =    0.0201             !
 ! D71   D(20,18,22,5)          82.123          D2E/DX2 =    0.0252             !
 ! D72   D(20,18,22,23)        -39.0043         D2E/DX2 =    0.0198             !
 ! D73   D(20,18,22,24)       -156.3289         D2E/DX2 =    0.0271             !
 ! D74   D(5,22,24,25)         -51.0007         D2E/DX2 =    0.0115             !
 ! D75   D(18,22,24,25)       -174.5823         D2E/DX2 =    0.0121             !
 ! D76   D(23,22,24,25)         69.3312         D2E/DX2 =    0.0131             !
 ! D77   D(5,26,29,30)          60.5363         D2E/DX2 =    0.0301             !
 ! D78   D(27,26,29,30)        -62.1721         D2E/DX2 =    0.0263             !
 ! D79   D(28,26,29,30)       -178.9159         D2E/DX2 =    0.0284             !
 --------------------------------------------------------------------------------
 Trust Radius=3.00D-01 FncErr=1.00D-07 GrdErr=1.00D-06
 Number of steps in this run=    174 maximum allowed number of steps=    180.
 GradGradGradGradGradGradGradGradGradGradGradGradGradGradGradGradGradGrad

                          Input orientation:                          
 ---------------------------------------------------------------------
 Center     Atomic      Atomic             Coordinates (Angstroms)
 Number     Number       Type             X           Y           Z
 ---------------------------------------------------------------------
      1          6           0       -0.846140    0.886860    0.092456
      2          1           0       -1.194384    1.370547    1.003666
      3          8           0       -1.889669    0.952101   -0.883086
      4          1           0       -2.408330    1.748623   -0.727125
      5          6           0        1.173372    1.099106   -1.287853
      6          1           0        2.074502    1.714702   -1.172337
      7          8           0        0.282861    1.634023   -0.297502
      8          6           0       -0.532055   -0.587706    0.408877
      9          1           0       -1.478867   -1.125232    0.430633
     10          7           0        0.070499   -0.676122    1.731828
     11          1           0        1.078069   -0.654737    1.782351
     12          6           0       -0.674392   -0.612327    2.868779
     13          8           0       -1.889789   -0.490167    2.848166
     14          6           0        0.097593   -0.712359    4.168953
     15          1           0       -0.275696   -1.571218    4.728470
     16          1           0       -0.101776    0.178543    4.766068
     17          1           0        1.174001   -0.818950    4.029422
     18          6           0        0.396930   -1.268523   -0.623428
     19          1           0        0.822180   -2.147692   -0.134464
     20          8           0       -0.286312   -1.749818   -1.754270
     21          1           0       -0.411612   -1.031977   -2.401837
     22          6           0        1.579228   -0.354325   -0.990900
     23          1           0        2.069529   -0.774708   -1.876089
     24          8           0        2.470292   -0.412900    0.132213
     25          1           0        3.196668    0.206223    0.004853
     26          6           0        0.701360    1.371399   -2.720684
     27          1           0        0.511369    2.446606   -2.811658
     28          1           0        1.513014    1.116117   -3.406337
     29          8           0       -0.431923    0.631777   -3.146482
     30          1           0       -1.172578    0.861757   -2.553982
 ---------------------------------------------------------------------
                    Distance matrix (angstroms):
                    1          2          3          4          5
     1  C    0.000000
     2  H    1.088821   0.000000
     3  O    1.429997   2.053863   0.000000
     4  H    1.963361   2.147614   0.963214   0.000000
     5  C    2.455347   3.306207   3.093165   3.683053   0.000000
     6  H    3.288643   3.941960   4.047206   4.505014   1.097423
     7  O    1.408887   1.986130   2.351130   2.727676   1.435250
     8  C    1.540492   2.151095   2.425549   3.204581   2.938147
     9  H    2.136170   2.576472   2.491973   3.234710   3.864615
    10  N    2.443498   2.513763   3.651184   4.250933   3.672361
    11  H    2.989121   3.142001   4.300459   4.922254   3.537118
    12  C    3.159910   2.771431   4.242738   4.638012   4.860126
    13  O    3.252590   2.710724   4.000297   4.250150   5.386594
    14  C    4.479505   4.003342   5.678269   6.025584   5.849396
    15  H    5.278274   4.834473   6.360944   6.732978   6.739924
    16  H    4.785231   4.095160   5.975608   6.161210   6.254870
    17  H    4.742411   4.422482   6.054373   6.484618   5.652641
    18  C    2.589090   3.484882   3.197988   4.121093   2.578757
    19  H    3.470344   4.211873   4.186081   5.095951   3.463429
    20  O    3.267396   4.262333   3.260381   4.218658   3.234902
    21  H    3.176830   4.240555   2.903071   3.810942   2.880043
    22  C    2.931998   3.827062   3.708318   4.515815   1.537973
    23  H    3.890643   4.852652   4.432062   5.266739   2.158772
    24  O    3.562257   4.167729   4.680098   5.404775   2.446375
    25  H    4.100639   4.651303   5.216857   5.859248   2.561651
    26  C    3.247043   4.179070   3.204061   3.713051   1.532953
    27  H    3.565041   4.315576   3.423145   3.654737   2.139155
    28  H    4.226076   5.181010   4.239333   4.791156   2.145605
    29  O    3.275265   4.283790   2.711198   3.317652   2.499974
    30  H    2.666613   3.593912   1.820515   2.377188   2.676359
                    6          7          8          9         10
     6  H    0.000000
     7  O    1.995451   0.000000
     8  C    3.820400   2.469644   0.000000
     9  H    4.822983   3.353708   1.088972   0.000000
    10  N    4.262187   3.082215   1.456396   2.072521   0.000000
    11  H    3.916287   3.193206   2.117410   2.930261   1.009063
    12  C    5.413141   3.998469   2.464140   2.618169   1.360731
    13  O    6.061476   4.373536   2.793400   2.533107   2.263519
    14  C    6.190975   5.048668   3.814468   4.078079   2.437545
    15  H    7.151239   5.987149   4.437556   4.485301   3.146571
    16  H    6.508504   5.282623   4.444929   4.732040   3.157015
    17  H    5.855646   5.053066   4.009046   4.481384   2.552852
    18  C    3.466292   2.923014   1.546667   2.156430   2.450454
    19  H    4.190892   3.823456   2.136054   2.580616   2.492707
    20  O    4.232610   3.727802   2.467813   2.566339   3.665108
    21  H    3.903419   3.466709   2.848157   3.028302   4.176871
    22  C    2.135202   2.472832   2.543886   3.459335   3.129387
    23  H    2.586978   3.389116   3.467604   4.246757   4.125882
    24  O    2.526893   3.026451   3.020130   4.023969   2.896042
    25  H    2.218229   3.258881   3.833658   4.880030   3.678846
    26  C    2.097797   2.473039   3.892757   4.573549   4.941173
    27  H    2.380429   2.652072   4.546166   5.218383   5.530738
    28  H    2.379985   3.383247   4.652008   5.356989   5.629717
    29  O    3.369294   3.103563   3.760019   4.120549   5.075523
    30  H    3.630425   2.793993   3.360022   3.598592   4.720008
                   11         12         13         14         15
    11  H    0.000000
    12  C    2.062339   0.000000
    13  O    3.157725   1.221695   0.000000
    14  C    2.580799   1.515394   2.396567   0.000000
    15  H    3.369308   2.129996   2.703611   1.090891   0.000000
    16  H    3.314960   2.133792   2.706014   1.090872   1.758785
    17  H    2.255105   2.192337   3.300041   1.090635   1.776569
    18  C    2.574579   3.711312   4.229289   4.833822   5.402487
    19  H    2.443066   3.690060   4.358698   4.593975   5.018544
    20  O    3.945684   4.776722   5.033913   6.025635   6.485208
    21  H    4.457453   5.293822   5.480976   6.598237   7.151960
    22  C    2.834136   4.476884   5.175998   5.380289   6.134555
    23  H    3.792304   5.483543   6.170555   6.358848   7.053702
    24  O    2.172493   4.173440   5.137380   4.691977   5.477931
    25  H    2.896414   4.884383   5.868682   5.271412   6.126105
    26  C    4.952218   6.088510   6.418066   7.223135   8.068676
    27  H    5.571750   6.559761   6.813502   7.673278   8.579972
    28  H    5.499780   6.866538   7.299180   7.920338   8.751933
    29  O    5.313058   6.147353   6.270561   7.456720   8.178781
    30  H    5.115560   5.641582   5.614739   7.020615   7.730322
                   16         17         18         19         20
    16  H    0.000000
    17  H    1.779114   0.000000
    18  C    5.602622   4.738667   0.000000
    19  H    5.502752   4.384892   1.092182   0.000000
    20  O    6.802017   6.037394   1.406154   2.002706   0.000000
    21  H    7.276003   6.627265   1.967850   2.812124   0.974853
    22  C    6.020997   5.058035   1.539033   2.126680   2.451606
    23  H    7.052766   5.973189   2.147231   2.544449   2.552580
    24  O    5.332725   4.127164   2.366836   2.407674   3.597921
    25  H    5.792207   4.619450   3.226166   3.346419   4.364832
    26  C    7.623607   7.112310   3.385314   4.368882   3.413422
    27  H    7.933599   7.609423   4.313193   5.326495   4.400493
    28  H    8.383006   7.690899   3.831023   4.672778   3.765698
    29  O    7.932393   7.495145   3.265569   4.286079   2.762508
    30  H    7.429437   7.188353   3.275437   4.346252   2.871468
                   21         22         23         24         25
    21  H    0.000000
    22  C    2.532469   0.000000
    23  H    2.549247   1.095754   0.000000
    24  O    3.887163   1.434855   2.079614   0.000000
    25  H    4.510541   1.980366   2.402210   0.962889   0.000000
    26  C    2.667693   2.596330   2.681604   3.801561   3.874629
    27  H    3.622207   3.507235   3.698651   4.547585   4.490310
    28  H    3.054098   2.828590   2.495313   3.971852   3.911370
    29  O    1.822906   3.108643   3.138369   4.501560   4.824799
    30  H    2.046569   3.390356   3.694430   4.702222   5.105651
                   26         27         28         29         30
    26  C    0.000000
    27  H    1.095647   0.000000
    28  H    1.092736   1.768371   0.000000
    29  O    1.418688   2.072562   2.021111   0.000000
    30  H    1.949145   2.326762   2.829066   0.975970   0.000000
 Symmetry turned off by external request.
 Stoichiometry    C8H15NO6
 Framework group  C1[X(C8H15NO6)]
 Deg. of freedom    84
 Full point group                 C1      NOp   1
 Rotational constants (GHZ):      1.0065341      0.4302071      0.3867165
 Standard basis: 6-311+G(2df,p) (5D, 7F)
 Integral buffers will be    131072 words long.
 Raffenetti 2 integral format.
 Two-electron integral symmetry is turned off.
   600 basis functions,   900 primitive gaussians,   675 cartesian basis functions
    59 alpha electrons       59 beta electrons
       nuclear repulsion energy      1182.3993525557 Hartrees.
 NAtoms=   30 NActive=   30 NUniq=   30 SFac= 1.00D+00 NAtFMM=   50 NAOKFM=F Big=F
 One-electron integrals computed using PRISM.
 NBasis=   600 RedAO= T  NBF=   600
 NBsUse=   600 1.00D-06 NBFU=   600
 Initial guess read from the checkpoint file:  /scratch/hbmayes/nag/nag_1c4_244relaxrelaxtsb3lyptsb3ltsircropt.chk
 B after Tr=     0.000000    0.000000    0.000000
         Rot=    1.000000    0.000000    0.000000    0.000000 Ang=   0.00 deg.
 Requested convergence on RMS density matrix=1.00D-08 within  64 cycles.
 Requested convergence on MAX density matrix=1.00D-06.
 Requested convergence on             energy=1.00D-06.
 No special actions if energy rises.
 SCF Done:  E(RB3LYP) =  -820.267285807     A.U. after    6 cycles
             Convg  =    0.4614D-08             -V/T =  2.0038
 QCSCF skips out because SCF is already converged.

 **********************************************************************

            Population analysis using the SCF density.

 **********************************************************************

 Alpha  occ. eigenvalues --  -19.16295 -19.15649 -19.15485 -19.14078 -19.11659
 Alpha  occ. eigenvalues --  -19.08589 -14.33916 -10.29074 -10.27259 -10.25189
 Alpha  occ. eigenvalues --  -10.24842 -10.23879 -10.23714 -10.21937 -10.17590
 Alpha  occ. eigenvalues --   -1.09760  -1.05939  -1.04555  -1.03957  -1.03407
 Alpha  occ. eigenvalues --   -1.02368  -0.93131  -0.80412  -0.79100  -0.73847
 Alpha  occ. eigenvalues --   -0.71460  -0.67319  -0.65964  -0.60252  -0.58455
 Alpha  occ. eigenvalues --   -0.56674  -0.55253  -0.53807  -0.52749  -0.50649
 Alpha  occ. eigenvalues --   -0.49706  -0.48991  -0.47722  -0.47433  -0.46514
 Alpha  occ. eigenvalues --   -0.44704  -0.43472  -0.42556  -0.41997  -0.40649
 Alpha  occ. eigenvalues --   -0.40324  -0.40116  -0.37810  -0.37014  -0.36751
 Alpha  occ. eigenvalues --   -0.35680  -0.34651  -0.32916  -0.31447  -0.30549
 Alpha  occ. eigenvalues --   -0.28805  -0.28495  -0.26543  -0.25740
 Alpha virt. eigenvalues --   -0.02281  -0.01234   0.00319   0.01276   0.01592
 Alpha virt. eigenvalues --    0.01782   0.03072   0.03320   0.04031   0.04331
 Alpha virt. eigenvalues --    0.05139   0.05630   0.06511   0.06840   0.07155
 Alpha virt. eigenvalues --    0.08122   0.08341   0.09045   0.09479   0.10172
 Alpha virt. eigenvalues --    0.10507   0.11515   0.11640   0.12234   0.12856
 Alpha virt. eigenvalues --    0.12995   0.13607   0.13829   0.14666   0.14927
 Alpha virt. eigenvalues --    0.15350   0.15507   0.16492   0.16871   0.17385
 Alpha virt. eigenvalues --    0.17791   0.18162   0.18363   0.18742   0.19115
 Alpha virt. eigenvalues --    0.19930   0.20077   0.20606   0.21138   0.21578
 Alpha virt. eigenvalues --    0.21641   0.21940   0.22545   0.22659   0.22964
 Alpha virt. eigenvalues --    0.23355   0.24097   0.24247   0.24676   0.25023
 Alpha virt. eigenvalues --    0.25357   0.25712   0.26395   0.27002   0.27563
 Alpha virt. eigenvalues --    0.28014   0.28781   0.29459   0.29869   0.30366
 Alpha virt. eigenvalues --    0.30841   0.31221   0.31912   0.32445   0.32577
 Alpha virt. eigenvalues --    0.32774   0.32970   0.33324   0.34151   0.34446
 Alpha virt. eigenvalues --    0.35196   0.35962   0.36556   0.37375   0.37938
 Alpha virt. eigenvalues --    0.38819   0.39655   0.39978   0.40898   0.41623
 Alpha virt. eigenvalues --    0.42572   0.43234   0.43612   0.44654   0.45879
 Alpha virt. eigenvalues --    0.46158   0.47409   0.47515   0.47707   0.50374
 Alpha virt. eigenvalues --    0.50636   0.51692   0.52063   0.52607   0.54030
 Alpha virt. eigenvalues --    0.54490   0.55898   0.56368   0.56739   0.58132
 Alpha virt. eigenvalues --    0.59009   0.59407   0.60640   0.60993   0.61902
 Alpha virt. eigenvalues --    0.62328   0.63232   0.64347   0.64966   0.65564
 Alpha virt. eigenvalues --    0.66293   0.66439   0.66798   0.67750   0.68242
 Alpha virt. eigenvalues --    0.69229   0.69728   0.70332   0.70959   0.71411
 Alpha virt. eigenvalues --    0.72336   0.73409   0.74378   0.75222   0.76402
 Alpha virt. eigenvalues --    0.76742   0.77877   0.79587   0.81032   0.82674
 Alpha virt. eigenvalues --    0.83884   0.84655   0.85431   0.87902   0.88104
 Alpha virt. eigenvalues --    0.89244   0.90693   0.92692   0.94683   0.95464
 Alpha virt. eigenvalues --    0.98511   0.99830   1.01491   1.02434   1.03578
 Alpha virt. eigenvalues --    1.04986   1.05498   1.06185   1.06773   1.06968
 Alpha virt. eigenvalues --    1.08139   1.09343   1.09960   1.10984   1.11387
 Alpha virt. eigenvalues --    1.12088   1.13616   1.15044   1.15385   1.16213
 Alpha virt. eigenvalues --    1.16787   1.16979   1.17926   1.18881   1.19591
 Alpha virt. eigenvalues --    1.20636   1.21793   1.22006   1.22673   1.23217
 Alpha virt. eigenvalues --    1.24886   1.25997   1.26595   1.27460   1.28895
 Alpha virt. eigenvalues --    1.30547   1.30743   1.31361   1.32821   1.34507
 Alpha virt. eigenvalues --    1.35100   1.35376   1.36073   1.37561   1.38680
 Alpha virt. eigenvalues --    1.39378   1.41201   1.42092   1.42818   1.43436
 Alpha virt. eigenvalues --    1.44089   1.45503   1.47035   1.47565   1.50158
 Alpha virt. eigenvalues --    1.51053   1.51564   1.53066   1.53343   1.55039
 Alpha virt. eigenvalues --    1.55428   1.57049   1.59094   1.60161   1.62046
 Alpha virt. eigenvalues --    1.63857   1.65284   1.68682   1.70032   1.71192
 Alpha virt. eigenvalues --    1.71894   1.72557   1.75172   1.75563   1.76776
 Alpha virt. eigenvalues --    1.77697   1.79190   1.79722   1.80809   1.81719
 Alpha virt. eigenvalues --    1.82680   1.83974   1.85361   1.88849   1.89514
 Alpha virt. eigenvalues --    1.90390   1.91726   1.93355   1.94447   1.96467
 Alpha virt. eigenvalues --    1.97770   1.99369   2.01064   2.02529   2.04497
 Alpha virt. eigenvalues --    2.06991   2.07900   2.09903   2.10832   2.12599
 Alpha virt. eigenvalues --    2.12871   2.13647   2.14515   2.15845   2.17031
 Alpha virt. eigenvalues --    2.17796   2.21409   2.22346   2.23240   2.23839
 Alpha virt. eigenvalues --    2.24936   2.25541   2.27003   2.28682   2.29292
 Alpha virt. eigenvalues --    2.30022   2.30122   2.30557   2.32822   2.33151
 Alpha virt. eigenvalues --    2.35350   2.36176   2.36694   2.39434   2.40928
 Alpha virt. eigenvalues --    2.42226   2.43077   2.44522   2.46540   2.48297
 Alpha virt. eigenvalues --    2.48647   2.49674   2.50535   2.52445   2.53660
 Alpha virt. eigenvalues --    2.54132   2.55734   2.56881   2.57884   2.58515
 Alpha virt. eigenvalues --    2.62167   2.62383   2.63134   2.65549   2.66404
 Alpha virt. eigenvalues --    2.69630   2.70705   2.73449   2.74668   2.75862
 Alpha virt. eigenvalues --    2.77475   2.77676   2.82221   2.84463   2.85657
 Alpha virt. eigenvalues --    2.87166   2.88671   2.90044   2.90533   2.92511
 Alpha virt. eigenvalues --    2.95184   2.96840   2.96897   2.98491   3.01410
 Alpha virt. eigenvalues --    3.03119   3.04241   3.05315   3.07024   3.07863
 Alpha virt. eigenvalues --    3.08582   3.10334   3.11369   3.14292   3.14894
 Alpha virt. eigenvalues --    3.15715   3.17903   3.18594   3.22194   3.22733
 Alpha virt. eigenvalues --    3.25560   3.26287   3.28259   3.28481   3.29491
 Alpha virt. eigenvalues --    3.30967   3.33626   3.34045   3.35561   3.36327
 Alpha virt. eigenvalues --    3.37340   3.38375   3.39254   3.39508   3.40592
 Alpha virt. eigenvalues --    3.41939   3.42832   3.45699   3.46329   3.47180
 Alpha virt. eigenvalues --    3.47933   3.49180   3.50376   3.51063   3.52185
 Alpha virt. eigenvalues --    3.53985   3.54995   3.55200   3.55801   3.57658
 Alpha virt. eigenvalues --    3.59151   3.60918   3.62995   3.63853   3.65161
 Alpha virt. eigenvalues --    3.66934   3.67331   3.68772   3.70107   3.70352
 Alpha virt. eigenvalues --    3.71878   3.73026   3.74549   3.76041   3.77552
 Alpha virt. eigenvalues --    3.78484   3.79101   3.80395   3.81005   3.81876
 Alpha virt. eigenvalues --    3.83144   3.84757   3.85349   3.87944   3.88617
 Alpha virt. eigenvalues --    3.89210   3.91900   3.93010   3.96743   3.97584
 Alpha virt. eigenvalues --    4.00061   4.00365   4.02490   4.04755   4.06524
 Alpha virt. eigenvalues --    4.08410   4.08981   4.10173   4.12448   4.15481
 Alpha virt. eigenvalues --    4.15948   4.18759   4.19420   4.23409   4.25366
 Alpha virt. eigenvalues --    4.30023   4.32380   4.35385   4.36780   4.41312
 Alpha virt. eigenvalues --    4.41958   4.46224   4.46975   4.48942   4.51022
 Alpha virt. eigenvalues --    4.55312   4.56231   4.61325   4.64670   4.65580
 Alpha virt. eigenvalues --    4.70196   4.72277   4.73009   4.80361   4.82943
 Alpha virt. eigenvalues --    4.87733   4.89842   4.90970   4.95499   5.01233
 Alpha virt. eigenvalues --    5.08377   5.09365   5.10205   5.10856   5.11816
 Alpha virt. eigenvalues --    5.13513   5.14025   5.14478   5.15071   5.15190
 Alpha virt. eigenvalues --    5.15396   5.16165   5.17223   5.18687   5.19407
 Alpha virt. eigenvalues --    5.20154   5.21606   5.21778   5.22676   5.24049
 Alpha virt. eigenvalues --    5.25340   5.26846   5.28533   5.30506   5.32233
 Alpha virt. eigenvalues --    5.33116   5.33822   5.34318   5.35771   5.36217
 Alpha virt. eigenvalues --    5.38048   5.39284   5.40001   5.41029   5.42392
 Alpha virt. eigenvalues --    5.45975   5.46620   5.48042   5.48596   5.51201
 Alpha virt. eigenvalues --    5.60635   5.63142   5.67798   5.70369   5.71518
 Alpha virt. eigenvalues --    5.72755   5.75784   5.78348   5.79729   5.82031
 Alpha virt. eigenvalues --    5.84724   5.85875   5.90950   5.95605   5.98382
 Alpha virt. eigenvalues --    6.05032   6.14060   6.18336   6.24741   6.29183
 Alpha virt. eigenvalues --    6.31610   6.33018   6.38638   6.42311   6.47435
 Alpha virt. eigenvalues --    6.50591   6.53699   6.65642   6.68329   6.84497
 Alpha virt. eigenvalues --    6.90138   6.91289   6.95635   6.97626   7.00301
 Alpha virt. eigenvalues --    7.03922   7.09390   7.13958   7.15713   7.17428
 Alpha virt. eigenvalues --    7.18805   7.20990   7.23776   7.24110   7.28280
 Alpha virt. eigenvalues --    7.29275   7.32009   7.34624   7.40516   7.46116
 Alpha virt. eigenvalues --    7.49900   7.52260   7.54670   7.57124   7.61390
 Alpha virt. eigenvalues --    7.62953   7.64727   7.70630   7.71127   7.81354
 Alpha virt. eigenvalues --    7.83500  24.29973  24.34128  24.36148  24.39092
 Alpha virt. eigenvalues --   24.41623  24.43789  24.50833  24.82488  35.87260
 Alpha virt. eigenvalues --   49.98293  50.01442  50.02775  50.08772  50.14086
 Alpha virt. eigenvalues --   50.21423
          Condensed to atoms (all electrons):
              1          2          3          4          5          6
     1  C    8.230210   0.496893  -0.043906   0.139972  -0.370448   0.018187
     2  H    0.496893   0.542263  -0.033669  -0.013660   0.015336  -0.000208
     3  O   -0.043906  -0.033669   8.209297   0.197620  -0.077806  -0.000935
     4  H    0.139972  -0.013660   0.197620   0.476895   0.008013   0.000008
     5  C   -0.370448   0.015336  -0.077806   0.008013   6.929572   0.447056
     6  H    0.018187  -0.000208  -0.000935   0.000008   0.447056   0.622952
     7  O    0.236022  -0.068848  -0.055659  -0.006296   0.343325  -0.065982
     8  C   -2.540811  -0.126071   0.235392  -0.099260  -0.617377  -0.008332
     9  H   -0.044304  -0.000476   0.002353  -0.000942  -0.008508   0.000107
    10  N    0.373141   0.002965   0.015384  -0.000544  -0.005306  -0.002955
    11  H   -0.017036   0.000088  -0.000783   0.000000  -0.023850   0.000279
    12  C   -0.144386   0.022403   0.009165  -0.006498  -0.045627  -0.000929
    13  O   -0.087092  -0.000002   0.000726   0.000370  -0.000290  -0.000005
    14  C   -0.101896   0.000378  -0.002977  -0.000612  -0.023073   0.000205
    15  H    0.000285   0.000017   0.000013   0.000000   0.000066   0.000000
    16  H   -0.002463   0.000017  -0.000017   0.000001   0.000126   0.000000
    17  H    0.004087  -0.000085  -0.000012   0.000001  -0.000443  -0.000002
    18  C   -0.197776   0.017063  -0.119589   0.005436   1.426673   0.000855
    19  H    0.001471  -0.000303   0.000820   0.000083  -0.006008  -0.000251
    20  O    0.025045  -0.000471   0.012229   0.000155  -0.049476   0.000434
    21  H    0.029235  -0.000079  -0.001871   0.001180  -0.002292  -0.000965
    22  C    0.442561  -0.005962   0.036951  -0.003943  -1.911907  -0.033621
    23  H   -0.030596   0.000179   0.000851  -0.000019   0.011351  -0.003776
    24  O   -0.042581   0.001284   0.003147   0.000015   0.057310  -0.016536
    25  H    0.011300  -0.000039  -0.000077   0.000010  -0.104034   0.013692
    26  C   -0.169178  -0.001863   0.097668  -0.006832  -0.190847  -0.059271
    27  H    0.000822  -0.000002  -0.001652   0.000849  -0.053134  -0.003867
    28  H   -0.004173   0.000042  -0.000272  -0.000027   0.022073  -0.003357
    29  O    0.011037  -0.000271  -0.007290  -0.001325  -0.025465   0.008655
    30  H    0.038109   0.000348   0.002042  -0.001864   0.017537  -0.001077
              7          8          9         10         11         12
     1  C    0.236022  -2.540811  -0.044304   0.373141  -0.017036  -0.144386
     2  H   -0.068848  -0.126071  -0.000476   0.002965   0.000088   0.022403
     3  O   -0.055659   0.235392   0.002353   0.015384  -0.000783   0.009165
     4  H   -0.006296  -0.099260  -0.000942  -0.000544   0.000000  -0.006498
     5  C    0.343325  -0.617377  -0.008508  -0.005306  -0.023850  -0.045627
     6  H   -0.065982  -0.008332   0.000107  -0.002955   0.000279  -0.000929
     7  O    7.905669  -0.068484   0.004321   0.023354  -0.001155  -0.001149
     8  C   -0.068484  12.802202   0.378844  -0.508060   0.031783  -0.219164
     9  H    0.004321   0.378844   0.508376  -0.034266   0.005263  -0.005784
    10  N    0.023354  -0.508060  -0.034266   7.103318   0.304638   0.089885
    11  H   -0.001155   0.031783   0.005263   0.304638   0.400122  -0.004957
    12  C   -0.001149  -0.219164  -0.005784   0.089885  -0.004957   6.217923
    13  O    0.000688   0.032670   0.005755  -0.103851   0.001709   0.372430
    14  C    0.001894   0.157593  -0.001747  -0.204390   0.010199  -0.532284
    15  H    0.000029  -0.010355   0.000140   0.002601  -0.000395  -0.043104
    16  H   -0.000008  -0.000495  -0.000054   0.001086  -0.000141  -0.049001
    17  H   -0.000145   0.016819  -0.000101   0.004409   0.006556  -0.066465
    18  C    0.032423  -4.741814   0.019580   0.015277  -0.037724  -0.039041
    19  H   -0.002448   0.001699  -0.004341   0.003131   0.001569   0.001441
    20  O    0.004879   0.135186  -0.009388  -0.011039   0.000377   0.001832
    21  H   -0.004239  -0.098006   0.001435   0.002995   0.000002   0.000934
    22  C   -0.057962   1.038684   0.001712   0.012221   0.047043   0.064743
    23  H    0.002288   0.052650  -0.000242  -0.001940  -0.000868   0.001003
    24  O    0.020383   0.017835   0.000212   0.028413  -0.010811  -0.000380
    25  H   -0.002321   0.029416   0.000016  -0.009509   0.001067  -0.003714
    26  C   -0.126206   0.242402   0.005134   0.032832  -0.004678   0.005796
    27  H   -0.000930  -0.005389  -0.000017  -0.000444   0.000017  -0.000139
    28  H    0.005684   0.004084  -0.000015  -0.000414   0.000019  -0.000029
    29  O    0.014305  -0.094541  -0.000592  -0.003018   0.000119  -0.003255
    30  H    0.002325  -0.048339  -0.000031  -0.000534   0.000010  -0.000038
             13         14         15         16         17         18
     1  C   -0.087092  -0.101896   0.000285  -0.002463   0.004087  -0.197776
     2  H   -0.000002   0.000378   0.000017   0.000017  -0.000085   0.017063
     3  O    0.000726  -0.002977   0.000013  -0.000017  -0.000012  -0.119589
     4  H    0.000370  -0.000612   0.000000   0.000001   0.000001   0.005436
     5  C   -0.000290  -0.023073   0.000066   0.000126  -0.000443   1.426673
     6  H   -0.000005   0.000205   0.000000   0.000000  -0.000002   0.000855
     7  O    0.000688   0.001894   0.000029  -0.000008  -0.000145   0.032423
     8  C    0.032670   0.157593  -0.010355  -0.000495   0.016819  -4.741814
     9  H    0.005755  -0.001747   0.000140  -0.000054  -0.000101   0.019580
    10  N   -0.103851  -0.204390   0.002601   0.001086   0.004409   0.015277
    11  H    0.001709   0.010199  -0.000395  -0.000141   0.006556  -0.037724
    12  C    0.372430  -0.532284  -0.043104  -0.049001  -0.066465  -0.039041
    13  O    8.143008   0.018598  -0.002197  -0.003727   0.006218   0.033884
    14  C    0.018598   6.061074   0.420191   0.418804   0.398874  -0.101207
    15  H   -0.002197   0.420191   0.520991  -0.025571  -0.028497   0.000991
    16  H   -0.003727   0.418804  -0.025571   0.529193  -0.030227   0.001391
    17  H    0.006218   0.398874  -0.028497  -0.030227   0.559273  -0.002124
    18  C    0.033884  -0.101207   0.000991   0.001391  -0.002124  13.153294
    19  H    0.000073  -0.001692   0.000011   0.000001  -0.000004   0.308660
    20  O    0.000812   0.001798  -0.000001   0.000000  -0.000018  -0.000332
    21  H    0.000000  -0.000104   0.000000   0.000000   0.000000   0.115024
    22  C    0.006073   0.054050  -0.000300  -0.000374   0.000585  -3.366321
    23  H   -0.000012   0.000327   0.000000   0.000000  -0.000001  -0.100591
    24  O   -0.000121  -0.000446   0.000013   0.000031  -0.000598  -0.141854
    25  H    0.000018   0.001316  -0.000002   0.000004  -0.000040  -0.045376
    26  C   -0.001064  -0.002736   0.000010  -0.000011   0.000031  -0.315388
    27  H   -0.000001   0.000009   0.000000   0.000000   0.000000   0.007376
    28  H    0.000000   0.000001   0.000000   0.000000   0.000000   0.008721
    29  O   -0.000021  -0.000110   0.000000   0.000000   0.000000   0.047103
    30  H   -0.000029   0.000156   0.000000   0.000000   0.000000   0.066133
             19         20         21         22         23         24
     1  C    0.001471   0.025045   0.029235   0.442561  -0.030596  -0.042581
     2  H   -0.000303  -0.000471  -0.000079  -0.005962   0.000179   0.001284
     3  O    0.000820   0.012229  -0.001871   0.036951   0.000851   0.003147
     4  H    0.000083   0.000155   0.001180  -0.003943  -0.000019   0.000015
     5  C   -0.006008  -0.049476  -0.002292  -1.911907   0.011351   0.057310
     6  H   -0.000251   0.000434  -0.000965  -0.033621  -0.003776  -0.016536
     7  O   -0.002448   0.004879  -0.004239  -0.057962   0.002288   0.020383
     8  C    0.001699   0.135186  -0.098006   1.038684   0.052650   0.017835
     9  H   -0.004341  -0.009388   0.001435   0.001712  -0.000242   0.000212
    10  N    0.003131  -0.011039   0.002995   0.012221  -0.001940   0.028413
    11  H    0.001569   0.000377   0.000002   0.047043  -0.000868  -0.010811
    12  C    0.001441   0.001832   0.000934   0.064743   0.001003  -0.000380
    13  O    0.000073   0.000812   0.000000   0.006073  -0.000012  -0.000121
    14  C   -0.001692   0.001798  -0.000104   0.054050   0.000327  -0.000446
    15  H    0.000011  -0.000001   0.000000  -0.000300   0.000000   0.000013
    16  H    0.000001   0.000000   0.000000  -0.000374   0.000000   0.000031
    17  H   -0.000004  -0.000018   0.000000   0.000585  -0.000001  -0.000598
    18  C    0.308660  -0.000332   0.115024  -3.366321  -0.100591  -0.141854
    19  H    0.575637  -0.058152   0.002832   0.018681  -0.004079   0.001905
    20  O   -0.058152   7.960041   0.287716   0.037089  -0.009393   0.005485
    21  H    0.002832   0.287716   0.325861  -0.031620   0.001150  -0.000725
    22  C    0.018681   0.037089  -0.031620   9.256641   0.397748   0.084174
    23  H   -0.004079  -0.009393   0.001150   0.397748   0.577030  -0.042693
    24  O    0.001905   0.005485  -0.000725   0.084174  -0.042693   8.178935
    25  H    0.001045  -0.000250  -0.000196   0.141214  -0.006777   0.211198
    26  C    0.004138   0.010191   0.023107  -0.063554   0.013290   0.059791
    27  H    0.000014  -0.000855   0.000344   0.028299  -0.000428  -0.000987
    28  H    0.000023   0.000081  -0.002075  -0.046849   0.000954  -0.000947
    29  O    0.002304   0.011894   0.038767   0.024786  -0.004372  -0.002107
    30  H   -0.000604  -0.019213  -0.000565  -0.049946  -0.000244  -0.000173
             25         26         27         28         29         30
     1  C    0.011300  -0.169178   0.000822  -0.004173   0.011037   0.038109
     2  H   -0.000039  -0.001863  -0.000002   0.000042  -0.000271   0.000348
     3  O   -0.000077   0.097668  -0.001652  -0.000272  -0.007290   0.002042
     4  H    0.000010  -0.006832   0.000849  -0.000027  -0.001325  -0.001864
     5  C   -0.104034  -0.190847  -0.053134   0.022073  -0.025465   0.017537
     6  H    0.013692  -0.059271  -0.003867  -0.003357   0.008655  -0.001077
     7  O   -0.002321  -0.126206  -0.000930   0.005684   0.014305   0.002325
     8  C    0.029416   0.242402  -0.005389   0.004084  -0.094541  -0.048339
     9  H    0.000016   0.005134  -0.000017  -0.000015  -0.000592  -0.000031
    10  N   -0.009509   0.032832  -0.000444  -0.000414  -0.003018  -0.000534
    11  H    0.001067  -0.004678   0.000017   0.000019   0.000119   0.000010
    12  C   -0.003714   0.005796  -0.000139  -0.000029  -0.003255  -0.000038
    13  O    0.000018  -0.001064  -0.000001   0.000000  -0.000021  -0.000029
    14  C    0.001316  -0.002736   0.000009   0.000001  -0.000110   0.000156
    15  H   -0.000002   0.000010   0.000000   0.000000   0.000000   0.000000
    16  H    0.000004  -0.000011   0.000000   0.000000   0.000000   0.000000
    17  H   -0.000040   0.000031   0.000000   0.000000   0.000000   0.000000
    18  C   -0.045376  -0.315388   0.007376   0.008721   0.047103   0.066133
    19  H    0.001045   0.004138   0.000014   0.000023   0.002304  -0.000604
    20  O   -0.000250   0.010191  -0.000855   0.000081   0.011894  -0.019213
    21  H   -0.000196   0.023107   0.000344  -0.002075   0.038767  -0.000565
    22  C    0.141214  -0.063554   0.028299  -0.046849   0.024786  -0.049946
    23  H   -0.006777   0.013290  -0.000428   0.000954  -0.004372  -0.000244
    24  O    0.211198   0.059791  -0.000987  -0.000947  -0.002107  -0.000173
    25  H    0.484337  -0.003111  -0.000010   0.000374   0.000524  -0.000042
    26  C   -0.003111   5.821152   0.401704   0.397901   0.171316  -0.012135
    27  H   -0.000010   0.401704   0.576474  -0.038931  -0.036432  -0.008864
    28  H    0.000374   0.397901  -0.038931   0.566408  -0.056715   0.006713
    29  O    0.000524   0.171316  -0.036432  -0.056715   7.947647   0.313686
    30  H   -0.000042  -0.012135  -0.008864   0.006713   0.313686   0.366859
 Mulliken atomic charges:
              1
     1  C   -0.261733
     2  H    0.152731
     3  O   -0.477145
     4  H    0.311216
     5  C    0.237454
     6  H    0.089638
     7  O   -0.135758
     8  C    0.009239
     9  H    0.177561
    10  N   -0.129382
    11  H    0.291540
    12  C    0.378389
    13  O   -0.424622
    14  C   -0.572193
    15  H    0.165063
    16  H    0.161434
    17  H    0.131908
    18  C   -0.050749
    19  H    0.152346
    20  O   -0.336657
    21  H    0.312154
    22  C   -0.120897
    23  H    0.147207
    24  O   -0.409174
    25  H    0.279966
    26  C   -0.329588
    27  H    0.136176
    28  H    0.140725
    29  O   -0.356627
    30  H    0.329779
 Sum of Mulliken atomic charges =   0.00000
 Mulliken charges with hydrogens summed into heavy atoms:
              1
     1  C   -0.109002
     3  O   -0.165929
     5  C    0.327092
     7  O   -0.135758
     8  C    0.186800
    10  N    0.162158
    12  C    0.378389
    13  O   -0.424622
    14  C   -0.113788
    18  C    0.101597
    20  O   -0.024503
    22  C    0.026310
    24  O   -0.129208
    26  C   -0.052688
    29  O   -0.026848
 Sum of Mulliken charges with hydrogens summed into heavy atoms =   0.00000
 Electronic spatial extent (au):  <R**2>=           3159.6537
 Charge=              0.0000 electrons
 Dipole moment (field-independent basis, Debye):
    X=              4.3160    Y=              3.5328    Z=             -0.2196  Tot=              5.5818
 Quadrupole moment (field-independent basis, Debye-Ang):
   XX=            -86.4617   YY=            -90.7716   ZZ=            -94.7382
   XY=             -3.7576   XZ=              4.0325   YZ=             -6.2682
 Traceless Quadrupole moment (field-independent basis, Debye-Ang):
   XX=              4.1954   YY=             -0.1144   ZZ=             -4.0810
   XY=             -3.7576   XZ=              4.0325   YZ=             -6.2682
 Octapole moment (field-independent basis, Debye-Ang**2):
  XXX=             19.7751  YYY=             16.7757  ZZZ=             22.9478  XYY=            -13.0170
  XXY=             29.9764  XXZ=            -38.1790  XZZ=             37.1224  YZZ=              8.4759
  YYZ=              1.8166  XYZ=             -3.6850
 Hexadecapole moment (field-independent basis, Debye-Ang**3):
 XXXX=           -783.3668 YYYY=           -687.5478 ZZZZ=          -2512.8390 XXXY=              1.6372
 XXXZ=            192.9573 YYYX=            -20.0149 YYYZ=            187.9789 ZZZX=            185.8738
 ZZZY=            207.3385 XXYY=           -228.2039 XXZZ=           -608.8495 YYZZ=           -517.4930
 XXYZ=             76.0929 YYXZ=             43.6040 ZZXY=             -5.1810
 N-N= 1.182399352556D+03 E-N=-4.288333290812D+03  KE= 8.171909040285D+02
 Calling FoFJK, ICntrl=      2127 FMM=F ISym2X=0 I1Cent= 0 IOpClX= 0 NMat=1 NMatS=1 NMatT=0.
 -------------------------------------------------------------------
 Center     Atomic                   Forces (Hartrees/Bohr)
 Number     Number              X              Y              Z
 -------------------------------------------------------------------
      1        6          -0.000172800    0.000101331    0.000152641
      2        1           0.000028196   -0.000036350    0.000031534
      3        8           0.000028662   -0.000023594    0.000088501
      4        1          -0.000010229   -0.000022825   -0.000007847
      5        6          -0.000146188   -0.000016817    0.000011096
      6        1          -0.000013180   -0.000004229   -0.000022215
      7        8           0.000156791   -0.000024600   -0.000174486
      8        6           0.000083078    0.000152732   -0.000128994
      9        1           0.000000797   -0.000029652   -0.000028754
     10        7           0.000006808    0.000013106   -0.000011659
     11        1           0.000065061   -0.000131501    0.000051833
     12        6           0.000016449    0.000030666    0.000003760
     13        8          -0.000024843   -0.000003698   -0.000012392
     14        6          -0.000003889    0.000002060   -0.000002439
     15        1           0.000004881   -0.000011643   -0.000000607
     16        1          -0.000005532   -0.000002372    0.000005044
     17        1          -0.000021727    0.000017853    0.000007779
     18        6          -0.000233043   -0.000048245    0.000117829
     19        1          -0.000008017    0.000002958    0.000004022
     20        8           0.000013202    0.000021134   -0.000016220
     21        1           0.000055276   -0.000037706    0.000033556
     22        6           0.000093680   -0.000051464    0.000013641
     23        1           0.000068202    0.000016930    0.000003568
     24        8          -0.000008734    0.000111970   -0.000084959
     25        1           0.000027283   -0.000021426    0.000015124
     26        6           0.000036137   -0.000047722    0.000063312
     27        1          -0.000007743    0.000000184    0.000009328
     28        1           0.000013788   -0.000003937    0.000019449
     29        8          -0.000041680    0.000070311   -0.000107797
     30        1          -0.000000683   -0.000023455   -0.000033651
 -------------------------------------------------------------------
 Cartesian Forces:  Max     0.000233043 RMS     0.000064464

 GradGradGradGradGradGradGradGradGradGradGradGradGradGradGradGradGradGrad
 Berny optimization.
 Internal  Forces:  Max     0.000191486 RMS     0.000046460
 Search for a local minimum.
 Step number   1 out of a maximum of  174
 All quantities printed in internal units (Hartrees-Bohrs-Radians)
 Mixed Optimization -- En-DIIS/RFO-DIIS
 Second derivative matrix not updated -- first step.
 ITU=  0
     Eigenvalues ---    0.00025   0.00221   0.00275   0.00371   0.00432
     Eigenvalues ---    0.00504   0.00602   0.00892   0.00920   0.01094
     Eigenvalues ---    0.01738   0.01943   0.02225   0.03077   0.03191
     Eigenvalues ---    0.03765   0.04013   0.04391   0.04697   0.04835
     Eigenvalues ---    0.05011   0.05212   0.05332   0.05335   0.05718
     Eigenvalues ---    0.05727   0.05880   0.06410   0.06779   0.07215
     Eigenvalues ---    0.07385   0.07657   0.08412   0.10116   0.10649
     Eigenvalues ---    0.11785   0.12123   0.12460   0.12933   0.13612
     Eigenvalues ---    0.13862   0.13928   0.15902   0.16132   0.16841
     Eigenvalues ---    0.17517   0.18972   0.19288   0.20319   0.20963
     Eigenvalues ---    0.21199   0.21875   0.22173   0.22572   0.23193
     Eigenvalues ---    0.24285   0.24776   0.25457   0.26096   0.28489
     Eigenvalues ---    0.29479   0.31387   0.32069   0.32440   0.32618
     Eigenvalues ---    0.32947   0.33157   0.33545   0.33739   0.33885
     Eigenvalues ---    0.33917   0.34570   0.35030   0.35670   0.37484
     Eigenvalues ---    0.38923   0.41248   0.43742   0.46447   0.46911
     Eigenvalues ---    0.47248   0.52653   0.52722   0.80002
 RFO step:  Lambda=-1.02064637D-05 EMin= 2.45350282D-04
 Linear search not attempted -- first point.
 Iteration  1 RMS(Cart)=  0.01390903 RMS(Int)=  0.00027736
 Iteration  2 RMS(Cart)=  0.00029286 RMS(Int)=  0.00000138
 Iteration  3 RMS(Cart)=  0.00000010 RMS(Int)=  0.00000137
 Variable       Old X    -DE/DX   Delta X   Delta X   Delta X     New X
                                 (Linear)    (Quad)   (Total)
    R1        2.05757   0.00000   0.00000  -0.00008  -0.00008   2.05749
    R2        2.70230  -0.00004   0.00000  -0.00036  -0.00036   2.70194
    R3        2.66241   0.00006   0.00000   0.00029   0.00029   2.66270
    R4        2.91111  -0.00004   0.00000   0.00010   0.00010   2.91120
    R5        1.82021  -0.00002   0.00000  -0.00005  -0.00005   1.82016
    R6        3.44027   0.00007   0.00000   0.00457   0.00457   3.44484
    R7        2.07383  -0.00001   0.00000   0.00004   0.00004   2.07387
    R8        2.71223  -0.00008   0.00000  -0.00062  -0.00062   2.71161
    R9        2.90635   0.00001   0.00000  -0.00005  -0.00005   2.90630
   R10        2.89686  -0.00003   0.00000  -0.00005  -0.00005   2.89681
   R11        2.05786   0.00001   0.00000   0.00010   0.00010   2.05796
   R12        2.75219   0.00005   0.00000   0.00016   0.00016   2.75235
   R13        2.92278  -0.00009   0.00000  -0.00027  -0.00027   2.92250
   R14        1.90685   0.00006   0.00000  -0.00001  -0.00001   1.90684
   R15        2.57141   0.00002   0.00000  -0.00002  -0.00002   2.57139
   R16        2.30867   0.00003   0.00000   0.00008   0.00008   2.30875
   R17        2.86368  -0.00001   0.00000  -0.00013  -0.00013   2.86355
   R18        2.06148   0.00001   0.00000   0.00054   0.00054   2.06203
   R19        2.06145   0.00000   0.00000  -0.00055  -0.00055   2.06090
   R20        2.06100  -0.00003   0.00000  -0.00003  -0.00003   2.06097
   R21        2.06392   0.00000   0.00000   0.00001   0.00001   2.06394
   R22        2.65725  -0.00004   0.00000  -0.00003  -0.00003   2.65722
   R23        2.90835   0.00012   0.00000   0.00010   0.00010   2.90845
   R24        1.84221  -0.00003   0.00000  -0.00002  -0.00002   1.84218
   R25        3.44479   0.00003   0.00000  -0.00021  -0.00021   3.44458
   R26        2.07067   0.00002   0.00000   0.00007   0.00007   2.07074
   R27        2.71148  -0.00004   0.00000  -0.00040  -0.00040   2.71108
   R28        1.81960   0.00001   0.00000  -0.00002  -0.00002   1.81958
   R29        2.07047   0.00000   0.00000   0.00001   0.00001   2.07049
   R30        2.06497   0.00000   0.00000   0.00000   0.00000   2.06497
   R31        2.68093   0.00006   0.00000   0.00014   0.00014   2.68107
   R32        1.84432   0.00004   0.00000  -0.00012  -0.00012   1.84419
    A1        1.89363   0.00005   0.00000   0.00078   0.00078   1.89441
    A2        1.82590   0.00006   0.00000   0.00025   0.00025   1.82615
    A3        1.89498  -0.00001   0.00000  -0.00002  -0.00002   1.89495
    A4        1.95170  -0.00001   0.00000  -0.00031  -0.00031   1.95139
    A5        1.90983  -0.00008   0.00000  -0.00106  -0.00106   1.90877
    A6        1.98351   0.00000   0.00000   0.00048   0.00047   1.98398
    A7        1.89675   0.00003   0.00000   0.00042   0.00042   1.89717
    A8        1.80059  -0.00001   0.00000   0.00004   0.00004   1.80064
    A9        1.86826  -0.00003   0.00000  -0.00039  -0.00039   1.86787
   A10        1.82511  -0.00001   0.00000  -0.00095  -0.00095   1.82416
   A11        1.96353   0.00002   0.00000  -0.00030  -0.00030   1.96323
   A12        1.96894  -0.00003   0.00000   0.00045   0.00045   1.96939
   A13        2.01483   0.00005   0.00000   0.00091   0.00091   2.01574
   A14        2.08350   0.00000   0.00000   0.00019   0.00019   2.08369
   A15        1.87477  -0.00003   0.00000  -0.00070  -0.00070   1.87407
   A16        1.90609   0.00009   0.00000   0.00074   0.00074   1.90683
   A17        1.98965   0.00003   0.00000   0.00108   0.00108   1.99073
   A18        1.88768  -0.00005   0.00000  -0.00037  -0.00037   1.88731
   A19        1.89471   0.00001   0.00000  -0.00101  -0.00101   1.89370
   A20        1.90822  -0.00004   0.00000   0.00016   0.00016   1.90838
   A21        2.04577   0.00015   0.00000   0.00122   0.00121   2.04698
   A22        2.12899  -0.00019   0.00000  -0.00073  -0.00074   2.12825
   A23        2.09877   0.00005   0.00000   0.00054   0.00053   2.09930
   A24        2.13553  -0.00005   0.00000  -0.00036  -0.00036   2.13517
   A25        2.02074   0.00008   0.00000   0.00045   0.00045   2.02119
   A26        2.12690  -0.00002   0.00000  -0.00012  -0.00012   2.12678
   A27        1.89411   0.00000   0.00000  -0.00029  -0.00029   1.89381
   A28        1.89929   0.00000   0.00000   0.00022   0.00022   1.89951
   A29        1.98173   0.00001   0.00000   0.00022   0.00022   1.98195
   A30        1.87517   0.00000   0.00000   0.00017   0.00017   1.87534
   A31        1.90328   0.00000   0.00000  -0.00163  -0.00163   1.90165
   A32        1.90734   0.00000   0.00000   0.00131   0.00131   1.90865
   A33        1.86438  -0.00004   0.00000  -0.00010  -0.00010   1.86429
   A34        1.97749   0.00008   0.00000   0.00030   0.00030   1.97780
   A35        1.93832   0.00003   0.00000   0.00011   0.00010   1.93842
   A36        1.84804   0.00001   0.00000  -0.00028  -0.00028   1.84776
   A37        1.86079   0.00005   0.00000   0.00024   0.00024   1.86102
   A38        1.96553  -0.00012   0.00000  -0.00028  -0.00028   1.96525
   A39        1.92264  -0.00006   0.00000   0.00015   0.00015   1.92278
   A40        1.98748  -0.00008   0.00000  -0.00080  -0.00080   1.98669
   A41        1.90145   0.00003   0.00000   0.00010   0.00010   1.90155
   A42        1.93220  -0.00005   0.00000  -0.00021  -0.00021   1.93199
   A43        1.88466   0.00002   0.00000   0.00075   0.00075   1.88541
   A44        1.83996   0.00012   0.00000   0.00019   0.00020   1.84016
   A45        1.91642  -0.00003   0.00000   0.00000   0.00000   1.91643
   A46        1.91633   0.00006   0.00000   0.00052   0.00052   1.91684
   A47        1.88107  -0.00005   0.00000  -0.00042  -0.00042   1.88064
   A48        1.89260  -0.00004   0.00000  -0.00033  -0.00033   1.89227
   A49        2.01961   0.00013   0.00000   0.00105   0.00105   2.02066
   A50        1.88174   0.00002   0.00000   0.00002   0.00002   1.88176
   A51        1.92642  -0.00005   0.00000  -0.00031  -0.00031   1.92611
   A52        1.85795  -0.00002   0.00000  -0.00006  -0.00006   1.85789
   A53        1.87671   0.00002   0.00000   0.00023   0.00023   1.87693
    D1        0.52665   0.00003   0.00000   0.00022   0.00022   0.52688
    D2       -1.47825  -0.00006   0.00000  -0.00037  -0.00037  -1.47863
    D3        2.59143   0.00000   0.00000   0.00004   0.00004   2.59147
    D4        2.89487  -0.00002   0.00000  -0.00211  -0.00211   2.89276
    D5       -1.34221   0.00006   0.00000  -0.00120  -0.00120  -1.34341
    D6        0.83076  -0.00004   0.00000  -0.00249  -0.00250   0.82827
    D7        1.38073   0.00001   0.00000   0.00480   0.00480   1.38554
    D8       -0.66260   0.00004   0.00000   0.00524   0.00524  -0.65736
    D9       -2.80251   0.00001   0.00000   0.00371   0.00371  -2.79879
   D10       -0.68320   0.00000   0.00000   0.00449   0.00449  -0.67871
   D11       -2.72653   0.00003   0.00000   0.00492   0.00492  -2.72161
   D12        1.41675   0.00000   0.00000   0.00340   0.00340   1.42014
   D13       -2.87856   0.00007   0.00000   0.00538   0.00538  -2.87318
   D14        1.36130   0.00010   0.00000   0.00581   0.00581   1.36711
   D15       -0.77861   0.00008   0.00000   0.00429   0.00429  -0.77433
   D16       -2.85800  -0.00002   0.00000  -0.00091  -0.00091  -2.85891
   D17       -0.85076  -0.00005   0.00000  -0.00148  -0.00148  -0.85224
   D18        1.46601   0.00002   0.00000  -0.00002  -0.00002   1.46599
   D19        2.78820   0.00003   0.00000   0.00283   0.00283   2.79103
   D20       -1.39030   0.00002   0.00000   0.00333   0.00333  -1.38697
   D21        0.71880  -0.00003   0.00000   0.00327   0.00327   0.72207
   D22        0.82234   0.00005   0.00000   0.00316   0.00316   0.82549
   D23        2.92702   0.00004   0.00000   0.00366   0.00366   2.93068
   D24       -1.24707  -0.00001   0.00000   0.00359   0.00359  -1.24347
   D25       -1.47167   0.00003   0.00000   0.00191   0.00191  -1.46976
   D26        0.63302   0.00002   0.00000   0.00241   0.00241   0.63543
   D27        2.74212  -0.00003   0.00000   0.00234   0.00234   2.74446
   D28       -1.02785   0.00001   0.00000   0.00104   0.00104  -1.02681
   D29        1.00477  -0.00001   0.00000   0.00067   0.00067   1.00543
   D30        3.08987   0.00002   0.00000   0.00103   0.00103   3.09090
   D31        0.91621  -0.00002   0.00000   0.00077   0.00077   0.91697
   D32        2.94883  -0.00005   0.00000   0.00039   0.00039   2.94922
   D33       -1.24926  -0.00002   0.00000   0.00076   0.00076  -1.24850
   D34       -3.07554   0.00003   0.00000   0.00167   0.00167  -3.07387
   D35       -1.04292   0.00001   0.00000   0.00129   0.00129  -1.04163
   D36        1.04218   0.00004   0.00000   0.00166   0.00166   1.04384
   D37       -1.62215  -0.00007   0.00000  -0.00806  -0.00806  -1.63020
   D38        1.37078  -0.00003   0.00000  -0.00012  -0.00012   1.37066
   D39        2.62589  -0.00006   0.00000  -0.00742  -0.00742   2.61847
   D40       -0.66438  -0.00001   0.00000   0.00052   0.00052  -0.66385
   D41        0.56577  -0.00001   0.00000  -0.00608  -0.00608   0.55968
   D42       -2.72450   0.00003   0.00000   0.00186   0.00186  -2.72264
   D43        2.80075   0.00003   0.00000  -0.00199  -0.00199   2.79876
   D44       -1.45432   0.00005   0.00000  -0.00222  -0.00222  -1.45654
   D45        0.77825  -0.00002   0.00000  -0.00227  -0.00227   0.77598
   D46       -1.39371   0.00001   0.00000  -0.00289  -0.00289  -1.39660
   D47        0.63442   0.00003   0.00000  -0.00313  -0.00313   0.63129
   D48        2.86698  -0.00004   0.00000  -0.00317  -0.00318   2.86380
   D49        0.66201  -0.00007   0.00000  -0.00383  -0.00383   0.65818
   D50        2.69013  -0.00004   0.00000  -0.00407  -0.00407   2.68606
   D51       -1.36049  -0.00012   0.00000  -0.00411  -0.00411  -1.36461
   D52        0.01225  -0.00001   0.00000  -0.00495  -0.00495   0.00729
   D53       -3.13667  -0.00003   0.00000  -0.00826  -0.00826   3.13826
   D54        3.00075   0.00004   0.00000   0.00327   0.00327   3.00403
   D55       -0.14816   0.00003   0.00000  -0.00003  -0.00003  -0.14819
   D56       -2.11326   0.00002   0.00000   0.05146   0.05146  -2.06180
   D57        2.13445   0.00002   0.00000   0.05130   0.05130   2.18575
   D58        0.00614   0.00002   0.00000   0.04931   0.04931   0.05545
   D59        1.02105   0.00000   0.00000   0.04817   0.04817   1.06922
   D60       -1.01442   0.00000   0.00000   0.04801   0.04801  -0.96641
   D61        3.14045   0.00000   0.00000   0.04602   0.04602  -3.09671
   D62        1.46120   0.00003   0.00000  -0.00149  -0.00149   1.45971
   D63       -2.78424   0.00002   0.00000  -0.00162  -0.00162  -2.78586
   D64       -0.75716   0.00002   0.00000  -0.00165  -0.00165  -0.75881
   D65       -0.80571  -0.00001   0.00000  -0.00107  -0.00107  -0.80678
   D66       -2.91978  -0.00001   0.00000  -0.00121  -0.00121  -2.92099
   D67        1.31571  -0.00004   0.00000  -0.00167  -0.00167   1.31403
   D68       -2.83043  -0.00001   0.00000  -0.00114  -0.00114  -2.83157
   D69        1.33868   0.00000   0.00000  -0.00129  -0.00129   1.33740
   D70       -0.70902  -0.00003   0.00000  -0.00175  -0.00175  -0.71076
   D71        1.43332   0.00002   0.00000  -0.00080  -0.00080   1.43252
   D72       -0.68075   0.00002   0.00000  -0.00094  -0.00094  -0.68170
   D73       -2.72845  -0.00001   0.00000  -0.00141  -0.00141  -2.72986
   D74       -0.89013  -0.00002   0.00000  -0.00055  -0.00055  -0.89068
   D75       -3.04704   0.00003   0.00000   0.00042   0.00042  -3.04662
   D76        1.21006  -0.00004   0.00000  -0.00056  -0.00056   1.20950
   D77        1.05656  -0.00002   0.00000  -0.00092  -0.00092   1.05563
   D78       -1.08511  -0.00002   0.00000  -0.00090  -0.00090  -1.08601
   D79       -3.12267  -0.00001   0.00000  -0.00073  -0.00073  -3.12340
         Item               Value     Threshold  Converged?
 Maximum Force            0.000191     0.000015     NO 
 RMS     Force            0.000046     0.000010     NO 
 Maximum Displacement     0.075766     0.000060     NO 
 RMS     Displacement     0.013909     0.000040     NO 
 Predicted change in Energy=-5.181968D-06
 GradGradGradGradGradGradGradGradGradGradGradGradGradGradGradGradGradGrad

                          Input orientation:                          
 ---------------------------------------------------------------------
 Center     Atomic      Atomic             Coordinates (Angstroms)
 Number     Number       Type             X           Y           Z
 ---------------------------------------------------------------------
      1          6           0       -0.841202    0.892983    0.093206
      2          1           0       -1.184860    1.378869    1.004935
      3          8           0       -1.887911    0.957535   -0.878686
      4          1           0       -2.405079    1.755060   -0.723044
      5          6           0        1.174303    1.098109   -1.293989
      6          1           0        2.076155    1.713716   -1.184085
      7          8           0        0.287624    1.637385   -0.303043
      8          6           0       -0.529274   -0.581843    0.410796
      9          1           0       -1.477216   -1.117507    0.431965
     10          7           0        0.071677   -0.671368    1.734497
     11          1           0        1.079299   -0.658811    1.786830
     12          6           0       -0.675220   -0.606381    2.870052
     13          8           0       -1.889879   -0.477150    2.846794
     14          6           0        0.092308   -0.718823    4.171767
     15          1           0       -0.253565   -1.607493    4.702148
     16          1           0       -0.141869    0.145426    4.794344
     17          1           0        1.172494   -0.784904    4.036562
     18          6           0        0.398260   -1.266295   -0.620192
     19          1           0        0.823179   -2.144356   -0.128941
     20          8           0       -0.285941   -1.750734   -1.749092
     21          1           0       -0.412581   -1.034607   -2.398276
     22          6           0        1.580842   -0.353997   -0.991680
     23          1           0        2.071317   -0.777540   -1.875309
     24          8           0        2.471917   -0.407674    0.131396
     25          1           0        3.198370    0.210870    0.001768
     26          6           0        0.698756    1.365525   -2.726543
     27          1           0        0.510580    2.440771   -2.820846
     28          1           0        1.508356    1.106297   -3.413143
     29          8           0       -0.437047    0.626890   -3.147550
     30          1           0       -1.175850    0.859669   -2.553939
 ---------------------------------------------------------------------
                    Distance matrix (angstroms):
                    1          2          3          4          5
     1  C    0.000000
     2  H    1.088777   0.000000
     3  O    1.429804   2.054222   0.000000
     4  H    1.963454   2.148573   0.963190   0.000000
     5  C    2.455332   3.305984   3.093444   3.683686   0.000000
     6  H    3.288776   3.941845   4.047084   4.505077   1.097445
     7  O    1.409042   1.986415   2.350854   2.727801   1.434920
     8  C    1.540543   2.151089   2.424529   3.203959   2.937807
     9  H    2.135729   2.577918   2.488428   3.232123   3.862438
    10  N    2.444254   2.512891   3.649936   4.249869   3.676760
    11  H    2.994119   3.144824   4.303705   4.926168   3.547850
    12  C    3.160144   2.771212   4.239043   4.634561   4.864696
    13  O    3.249497   2.708192   3.992182   4.241690   5.386719
    14  C    4.483750   4.007530   5.677896   6.026293   5.860584
    15  H    5.276366   4.843042   6.355797   6.735613   6.731475
    16  H    4.811299   4.119324   5.990947   6.176942   6.301406
    17  H    4.735012   4.407925   6.046638   6.473353   5.653364
    18  C    2.589919   3.484852   3.199814   4.122847   2.578110
    19  H    3.470583   4.210821   4.187344   5.097064   3.463266
    20  O    3.269804   4.264638   3.264756   4.223045   3.233472
    21  H    3.179120   4.243009   2.907642   3.815585   2.878563
    22  C    2.932275   3.826016   3.710138   4.517505   1.537946
    23  H    3.892103   4.852689   4.436127   5.270663   2.158848
    24  O    3.559484   4.162550   4.678905   5.403015   2.445998
    25  H    4.097778   4.645780   5.215646   5.857347   2.561840
    26  C    3.247423   4.179966   3.204977   3.714773   1.532927
    27  H    3.565763   4.317262   3.424140   3.656780   2.138822
    28  H    4.226158   5.181420   4.240310   4.792963   2.145337
    29  O    3.276683   4.285770   2.713315   3.320263   2.500837
    30  H    2.668422   3.596558   1.822932   2.380106   2.677228
                    6          7          8          9         10
     6  H    0.000000
     7  O    1.995220   0.000000
     8  C    3.821190   2.470195   0.000000
     9  H    4.822227   3.353256   1.089026   0.000000
    10  N    4.269037   3.086834   1.456482   2.072366   0.000000
    11  H    3.930514   3.204190   2.118230   2.929476   1.009058
    12  C    5.421156   4.003759   2.463704   2.617005   1.360721
    13  O    6.064429   4.374271   2.792184   2.532143   2.263323
    14  C    6.207901   5.061006   3.814449   4.075349   2.437819
    15  H    7.148829   5.989495   4.420822   4.468990   3.128748
    16  H    6.566641   5.328579   4.460324   4.733762   3.174180
    17  H    5.857888   5.048035   4.010415   4.486057   2.554250
    18  C    3.466088   2.923043   1.546522   2.155593   2.450542
    19  H    4.191419   3.823441   2.135859   2.580863   2.491355
    20  O    4.230974   3.728188   2.467921   2.564590   3.664466
    21  H    3.901454   3.466963   2.847718   3.024993   4.176872
    22  C    2.134898   2.472294   2.543903   3.458530   3.132147
    23  H    2.585376   3.389018   3.468090   4.246313   4.128018
    24  O    2.527333   3.023597   3.019196   4.023662   2.898382
    25  H    2.219045   3.255810   3.832888   4.879627   3.681970
    26  C    2.097055   2.473114   3.891426   4.569078   4.943990
    27  H    2.378785   2.652258   4.545438   5.214734   5.534365
    28  H    2.379087   3.383041   4.650190   5.351990   5.632258
    29  O    3.369358   3.104428   3.759171   4.115556   5.077269
    30  H    3.630624   2.795199   3.359415   3.593837   4.721343
                   11         12         13         14         15
    11  H    0.000000
    12  C    2.062633   0.000000
    13  O    3.157934   1.221736   0.000000
    14  C    2.581797   1.515323   2.396461   0.000000
    15  H    3.342993   2.129928   2.719842   1.091177   0.000000
    16  H    3.344128   2.133677   2.689998   1.090581   1.758892
    17  H    2.255190   2.192411   3.299757   1.090619   1.775754
    18  C    2.574219   3.710747   4.228276   4.832825   5.372950
    19  H    2.437749   3.688431   4.358355   4.589379   4.978656
    20  O    3.944479   4.774680   5.031581   6.022000   6.452911
    21  H    4.458928   5.292224   5.477584   6.596976   7.125272
    22  C    2.839819   4.479563   5.176384   5.386094   6.111953
    23  H    3.795979   5.485545   6.170864   6.362943   7.025442
    24  O    2.177823   4.176624   5.138431   4.699356   5.455235
    25  H    2.904006   4.888727   5.870079   5.282125   6.108672
    26  C    4.961178   6.090821   6.415494   7.231802   8.057990
    27  H    5.582251   6.563351   6.811652   7.684700   8.577167
    28  H    5.508122   6.868756   7.296719   7.928878   8.736530
    29  O    5.319816   6.147293   6.265922   7.460801   8.163571
    30  H    5.121889   5.640887   5.609352   7.023886   7.719345
[...]
 6,0.00003804,0.00005263,0.00000878,0.00000010,-0.00003683,0.00000150,0
 .00005141,0.00001779,-0.00010305,0.00000102,-0.01438068,0.00115976,-0.
 01922657,0.00009844,0.00152386,-0.00198304,-0.00766330,-0.00300088,-0.
 00168247,0.00056764,-0.00210345,0.00135279,-0.02201287,-0.07343147,0.0
 0025904,-0.00802737,0.00515256,-0.00784081,0.25994015,0.29607684,0.000
 20168,0.00124060,-0.00090217,-0.00026863,0.00011546,0.00010461,-0.0001
 1441,-0.00038794,0.00101417,0.00018396,0.00001415,-0.00004776,-0.01630
 057,0.00427272,-0.02382825,0.00080235,-0.00188060,0.00062346,-0.001474
 44,0.00109252,0.00509582,-0.00128084,-0.00058002,-0.00254457,0.0000062
 7,0.00005108,0.00045512,0.00382531,0.00154639,-0.00363393,-0.00082603,
 -0.00192222,0.00070878,-0.00130123,0.00072131,0.00295336,0.00240422,-0
 .00054802,-0.00050126,-0.00030428,0.00004828,0.00009648,0.00010930,0.0
 0002059,-0.00002080,0.00003889,-0.00002941,-0.00000663,0.00013241,-0.0
 0009794,0.00017604,-0.00520991,-0.00249194,-0.00129561,0.00074800,-0.0
 0035481,0.00069176,-0.00113619,0.00042074,0.00349485,0.00145454,0.0002
 8192,-0.00018211,-0.03558953,0.02329512,-0.15669521,-0.03011611,0.0018
 2821,-0.03316545,0.05583515,-0.08149725,0.25350849,-0.00131950,-0.0008
 3618,0.00017582,0.00008049,0.00007854,-0.00003373,0.00057328,0.0001899
 7,0.00016712,-0.00009987,0.00003069,0.00000509,0.00051384,-0.00067747,
 0.00226814,0.00033455,0.00190411,-0.00063128,0.00094672,0.00040201,-0.
 00016932,0.00048940,-0.00007690,0.00014617,-0.00001753,0.00003503,-0.0
 0004952,0.00030482,0.00029158,0.00026452,-0.00071182,-0.00046474,0.000
 09063,-0.00027571,-0.00006008,0.00040849,0.00013569,0.00004585,-0.0001
 3948,-0.00000224,0.00001371,-0.00004507,0.00001147,0.00001044,-0.00000
 856,-0.00000827,-0.00000888,0.00000749,0.00000635,-0.00002584,0.000024
 20,-0.00047885,0.00130888,-0.00572306,0.00043351,0.00019311,-0.0000995
 0,-0.00156162,-0.00070149,-0.00006386,0.00006038,-0.00058119,0.0003675
 9,-0.02150321,-0.01709884,0.00503821,0.00157169,0.00002666,0.00057753,
 -0.29236375,-0.23215455,0.02976716,0.31184257,0.00066646,0.00064445,-0
 .00013728,-0.00004346,-0.00003664,0.00002561,-0.00032255,-0.00013117,-
 0.00012112,0.00005060,-0.00001335,0.00000492,0.00405126,0.00357130,0.0
 0057719,-0.00096081,-0.00090385,0.00054416,-0.00089107,-0.00089988,0.0
 0022976,-0.00034338,0.00009531,-0.00017738,-0.00000862,-0.00007763,-0.
 00000094,0.00061774,-0.00000368,-0.00015966,-0.00031748,-0.00008471,0.
 00029024,0.00007108,0.00011584,-0.00015428,0.00002332,-0.00008445,0.00
 003035,-0.00001705,-0.00001614,0.00002104,-0.00001005,-0.00000838,0.00
 000391,0.00001953,0.00000173,-0.00001545,-0.00000069,0.00003180,-0.000
 00079,0.00084510,-0.00039764,-0.00001159,0.00007148,0.00055324,-0.0002
 8625,-0.00013061,0.00054322,-0.00021860,-0.00031369,0.00012562,-0.0000
 9308,0.00390908,-0.00070777,0.00160708,-0.00010687,-0.00028521,0.00063
 677,-0.25497145,-0.22033148,0.05039156,0.24834887,0.21905456,-0.000046
 27,-0.00023772,0.00003322,0.00008599,0.00004495,-0.00003416,0.00010925
 ,0.00002393,-0.00005964,-0.00002694,0.00000651,0.00002310,-0.00188176,
 -0.00116496,0.00152714,0.00063856,0.00149866,0.00023698,0.00074939,0.0
 0011104,-0.00087748,-0.00034760,-0.00002355,0.00005850,0.00000416,-0.0
 0002270,0.00000975,0.00075740,-0.00026691,-0.00147063,-0.00031097,0.00
 079633,0.00162601,0.00004447,0.00002101,0.00097285,0.00031648,-0.00001
 614,-0.00036124,0.00010051,-0.00005408,-0.00008712,-0.00004973,-0.0000
 0524,-0.00001301,0.00000816,-0.00000160,-0.00004084,-0.00004273,0.0000
 7553,-0.00001187,-0.00178150,0.00165322,-0.00453495,0.00012004,-0.0002
 1669,-0.00005357,-0.00175574,-0.00125412,-0.00028849,0.00014312,-0.000
 27734,0.00034357,-0.02895672,-0.02200758,0.00198949,-0.00013680,-0.000
 77141,-0.00023997,0.06409956,0.07497965,-0.04757857,-0.03221026,-0.053
 08258,0.04906950,0.01246515,0.00435045,0.00724260,-0.00178077,-0.00071
 715,-0.00029591,-0.00045706,-0.00000103,-0.00881249,-0.00013040,0.0000
 9786,0.00007785,-0.08368052,0.00585158,-0.03259919,-0.01158039,0.00388
 041,-0.02488033,-0.00434928,-0.00285662,0.03673997,-0.00120467,-0.0004
 1524,-0.00002482,-0.00012805,-0.00038977,0.00034570,-0.00019334,-0.000
 32036,-0.00041140,0.00006384,0.00026658,-0.00014128,0.00004413,0.00007
 287,-0.00014134,-0.00017068,-0.00012150,0.00002621,0.00002697,0.000007
 36,-0.00003937,-0.00000980,-0.00000737,-0.00000397,0.00000821,0.000004
 07,-0.00002296,-0.00001714,0.00001965,-0.00000264,0.00352045,0.0014842
 7,0.00461490,-0.00063273,-0.00032043,-0.00033800,-0.00272146,0.0049723
 9,-0.00640490,0.00146509,-0.00964810,0.00530784,-0.00309861,0.00141387
 ,-0.00627331,-0.00005753,0.00062052,-0.00032077,0.00032875,0.00106477,
 0.00009562,0.00037789,-0.00000932,-0.00015332,0.53692930,0.00129544,-0
 .00020976,0.00157796,0.00003831,0.00001155,-0.00020298,0.00073983,-0.0
 0060626,-0.00357463,0.00024872,0.00053478,-0.00053192,0.01004321,-0.09
 312842,0.02692127,-0.00943763,0.00234449,-0.01808326,-0.00022896,0.002
 03601,-0.01503103,-0.00009822,-0.00053446,0.00033181,-0.00015504,0.000
 00542,0.00014130,-0.00012612,0.00010234,-0.00038435,0.00034782,0.00003
 737,-0.00031572,-0.00004825,-0.00005019,0.00019505,-0.00011119,0.00006
 088,-0.00016453,0.00003946,0.00000017,-0.00007403,-0.00001389,0.000003
 19,-0.00001159,-0.00000829,-0.00000294,-0.00001505,-0.00002842,0.00000
 583,-0.00001072,0.00246529,-0.00026458,0.00284565,-0.00025036,-0.00014
 123,-0.00001992,-0.00078050,0.00150927,-0.00243750,-0.00346737,-0.0051
 4986,-0.00006336,0.00880626,0.00022968,0.02926680,0.00048054,0.0007154
 7,0.00038433,0.00395975,-0.00666563,0.00469053,-0.00060913,-0.00047041
 ,-0.00003705,-0.05095724,0.56438803,0.00106963,-0.00013115,-0.00137749
 ,-0.00002141,0.00010283,0.00000546,0.00006075,-0.00020766,-0.00285191,
 -0.00014934,0.00001998,-0.00006620,-0.01785357,0.02295049,-0.14645416,
 -0.00283162,0.00139069,-0.00319548,0.00332570,-0.00293559,-0.03285221,
 0.00023548,-0.00029940,-0.00069761,-0.00012485,0.00000451,0.00017189,-
 0.00035579,0.00014250,0.00024007,0.00027730,0.00003652,-0.00028481,0.0
 0044651,-0.00006222,-0.00038616,-0.00038516,0.00006325,0.00007483,0.00
 001224,-0.00000663,0.00001568,-0.00000658,-0.00000692,0.00000638,0.000
 00021,0.00000736,0.00000512,-0.00002075,0.00000838,-0.00002009,0.00251
 914,0.00023961,0.00117624,-0.00064213,-0.00041386,0.00007694,-0.001483
 37,0.00191419,-0.00269908,0.00147775,-0.00252561,0.00221648,-0.0071768
 1,0.01034077,-0.00586188,0.00082582,-0.00102956,-0.00017060,0.00246308
 ,-0.00301420,0.00286809,-0.00098032,0.00057048,-0.00030087,-0.07560466
 ,0.01574827,0.47980026,-0.00023740,-0.00012673,0.00004064,0.00004650,-
 0.00001366,0.00001995,-0.00011456,0.00027048,0.00025191,-0.00009677,-0
 .00005299,0.00019707,-0.00151260,0.00999144,0.00036369,-0.00009561,0.0
 0044654,0.00031650,0.00049407,-0.00107697,-0.00013908,0.00003686,0.000
 07853,0.00007841,0.00004478,-0.00002299,-0.00005811,0.00004934,0.00001
 071,-0.00002838,-0.00006694,-0.00000841,0.00007187,-0.00006933,0.00000
 585,0.00009859,0.00006947,-0.00000476,-0.00002845,-0.00000586,0.000000
 05,-0.00000451,0.00000078,0.00000119,-0.00000128,0.00000136,-0.0000016
 2,-0.00000190,0.00000305,-0.00000014,0.00000406,-0.00087914,-0.0002532
 8,-0.00070858,0.00017337,0.00015579,0.00004081,0.00080678,-0.00085151,
 0.00138338,-0.00073153,0.00176928,-0.00147729,0.00068913,-0.00016516,-
 0.00148480,0.00011615,-0.00055418,-0.00011440,-0.00017674,0.00050196,-
 0.00082342,0.00009931,0.00004145,0.00009852,-0.06136382,0.05686702,-0.
 00200627,0.06922455,-0.00071011,-0.00037076,0.00011181,0.00002557,0.00
 002294,0.00003048,0.00004816,0.00041010,0.00052431,-0.00014692,-0.0001
 2070,0.00020877,0.00446050,-0.00837407,0.00051758,0.00048180,0.0005963
 4,0.00072490,-0.00091576,0.00175801,-0.00091803,0.00011499,0.00000689,
 -0.00006536,0.00000288,0.00004880,-0.00001766,-0.00011808,0.00010917,0
 .00020389,0.00005448,-0.00003653,-0.00005918,0.00016504,-0.00002018,-0
 .00016785,-0.00011065,0.00003469,0.00006489,-0.00000339,-0.00000753,0.
 00002276,0.00000236,-0.00000162,0.00000527,-0.00000181,0.00000311,0.00
 000858,-0.00000074,-0.00000319,-0.00000514,-0.00017122,-0.00012407,-0.
 00069494,0.00004675,0.00003047,0.00007099,0.00033768,-0.00069321,0.001
 14593,-0.00023875,0.00174137,-0.00122560,0.00057956,0.00182002,0.00036
 509,-0.00013485,0.00018299,-0.00004923,0.00042177,-0.00049304,0.000728
 93,-0.00013224,-0.00008355,-0.00004303,0.05310800,-0.28196592,0.024738
 46,-0.04773109,0.31255514,0.00038500,0.00035626,-0.00041283,0.00003052
 ,-0.00000318,0.00000439,-0.00017091,-0.00017071,0.00031025,0.00014701,
 0.00002324,-0.00005642,-0.00971597,0.03405994,-0.00762581,0.00028810,-
 0.00034697,0.00116389,0.00002689,-0.00096539,0.00358408,-0.00020175,0.
 00010662,0.00003870,0.00005210,-0.00006624,-0.00003085,0.00010842,-0.0
 0008589,-0.00002496,-0.00013158,0.00001423,0.00013122,-0.00009400,0.00
 003280,0.00004788,0.00010045,-0.00004465,0.00000640,-0.00000835,0.0000
 0299,0.00000677,0.00000190,-0.00000085,0.00000016,0.00000417,-0.000000
 28,-0.00000340,0.00000835,0.00000162,0.00000687,-0.00076292,-0.0000766
 7,-0.00011064,0.00015368,0.00011192,-0.00001502,0.00051467,-0.00037342
 ,0.00068024,-0.00023080,0.00085672,-0.00058841,-0.00017112,-0.00292273
 ,-0.00459306,-0.00016918,0.00001697,0.00022899,-0.00154020,0.00197438,
 -0.00157064,0.00031758,0.00005629,0.00001502,-0.00177209,0.02239077,-0
 .05201623,0.01051343,-0.02199073,0.05481186,-0.00112470,-0.00020823,-0
 .00111504,0.00027905,0.00012997,0.00002535,0.00019994,-0.00002059,0.00
 147659,0.00005516,0.00003150,-0.00000696,0.00624125,-0.00157653,-0.003
 62241,0.00091984,-0.00035356,0.00065476,0.00161685,0.00063233,-0.00285
 342,0.00013670,0.00002616,-0.00006507,0.00001756,0.00002366,-0.0000288
 0,0.00002985,-0.00003226,0.00007109,-0.00001269,-0.00000995,0.00002086
 ,0.00001766,0.00000289,-0.00004906,0.00000652,-0.00000141,0.00002104,-
 0.00000238,0.00000119,0.00001210,0.00000065,-0.00000084,0.00000182,0.0
 0000055,0.00000079,0.00000222,0.00000348,-0.00000054,0.00000004,-0.000
 26323,-0.00025005,-0.00030289,0.00002288,-0.00000405,0.00003728,0.0003
 5023,-0.00044473,0.00033146,-0.00037368,0.00091970,-0.00024568,-0.0000
 6462,0.00087924,0.00030325,0.00027445,-0.00014809,-0.00041242,0.000154
 29,-0.00028855,-0.00007915,-0.00005087,0.00004038,0.00003852,-0.177145
 62,0.04826071,0.11614522,-0.00353271,0.00321761,0.00483728,0.20922590,
 -0.00044792,-0.00009810,0.00001073,0.00003771,0.00001739,-0.00000197,0
 .00018432,0.00013959,0.00053496,-0.00010229,-0.00003385,0.00010413,-0.
 00463030,0.00093718,0.00568153,0.00011224,0.00007737,-0.00069141,0.000
 14590,0.00124887,0.00118914,0.00005674,0.00010695,0.00003146,0.0000001
 6,0.00002459,-0.00002116,0.00003616,-0.00001249,-0.00005761,-0.0000123
 7,-0.00000515,0.00001839,-0.00005281,-0.00000399,0.00007738,0.00003867
 ,0.00000191,-0.00002694,0.00000070,0.00000162,-0.00000996,-0.00000052,
 0.00000163,-0.00000192,-0.00000018,-0.00000175,-0.00000120,-0.00000030
 ,-0.00000008,0.00000199,0.00011654,-0.00001027,0.00008894,-0.00002953,
 -0.00000926,0.00001631,0.00014862,-0.00006735,-0.00013813,-0.00025380,
 0.00018760,0.00018853,-0.00053042,-0.00007806,0.00037422,0.00009478,-0
 .00026855,0.00036490,-0.00015857,0.00015229,-0.00033654,0.00007284,0.0
 0003424,-0.00000515,0.05484040,-0.06863296,-0.04475530,0.02171080,-0.0
 0637555,-0.02011351,-0.04641472,0.06974907,-0.00283033,-0.00156277,-0.
 00051826,0.00041194,0.00019968,0.00003976,0.00053943,0.00021788,0.0011
 5474,-0.00007326,0.00004771,-0.00001754,0.02292892,-0.00847975,-0.0167
 3367,-0.00038606,-0.00066353,0.00062614,0.00008069,0.00154028,-0.00789
 350,0.00013969,-0.00022291,0.00006971,-0.00005603,0.00014085,0.0000075
 7,-0.00001719,0.00015843,-0.00003146,0.00009792,-0.00006449,-0.0000676
 6,0.00000759,-0.00004082,0.00012112,-0.00002048,0.00007276,-0.00006829
 ,0.00000562,-0.00000539,-0.00001880,-0.00000154,0.00000329,-0.00000310
 ,-0.00000495,-0.00000234,0.00000203,-0.00000858,-0.00000337,-0.0000026
 0,0.00019816,0.00005507,-0.00005417,-0.00003065,0.00002050,0.00003348,
 -0.00022685,0.00005016,0.00008891,0.00021360,-0.00005729,-0.00003760,0
 .00060726,-0.00092045,0.00012009,-0.00045227,0.00107480,0.00034515,-0.
 00024364,0.00008913,0.00073984,0.00000722,-0.00011551,-0.00020465,0.12
 246312,-0.04025844,-0.15670433,-0.00321123,0.00080213,0.00336616,-0.12
 649775,0.04695952,0.16642815,-0.01333117,-0.00208620,-0.00370273,0.001
 82021,0.00009220,0.00076327,0.00059164,0.00176944,0.01759029,0.0004396
 9,-0.00089368,0.00116068,-0.02579533,-0.01177450,-0.00397847,-0.000207
 52,0.00080018,-0.00439459,0.01051401,0.00231419,-0.00442444,0.00049909
 ,0.00095969,0.00010630,0.00014253,0.00033662,-0.00032290,0.00071311,-0
 .00036579,0.00014700,-0.00036428,-0.00016153,0.00044239,-0.00052277,0.
 00007717,0.00005635,0.00054032,-0.00014010,0.00014094,-0.00001797,0.00
 003165,0.00006604,0.00001657,0.00000471,0.00000219,0.00000040,-0.00000
 279,0.00001609,0.00005288,-0.00001819,0.00002206,-0.00226778,-0.000850
 82,-0.00131579,0.00065870,0.00032519,0.00022645,0.00609174,-0.00041483
 ,0.00179312,-0.00941270,0.00477471,-0.00307019,0.00192803,-0.00270231,
 0.00187433,0.00019725,-0.00017702,-0.00009471,-0.00053966,0.00173753,-
 0.00160279,0.00077696,-0.00036002,0.00050236,-0.17068618,-0.07071128,-
 0.03712044,-0.00524565,-0.01355000,-0.00322108,-0.03529735,-0.02171221
 ,-0.01166552,0.50449091,-0.00025051,-0.00230006,0.00070046,-0.00004620
 ,0.00027472,-0.00006987,0.00115808,0.00428539,-0.00383456,-0.00048739,
 0.00006956,0.00105591,-0.00423495,0.00406187,-0.00300556,0.00045747,0.
 00161016,0.00098270,0.00155889,0.00156147,-0.00108772,0.00067285,0.000
 02530,0.00009451,0.00026139,0.00003768,-0.00030129,-0.00064714,0.00093
 209,0.00106787,-0.00011003,-0.00028745,-0.00001422,0.00082841,-0.00008
 061,-0.00052558,-0.00042625,0.00021711,0.00019457,-0.00007525,-0.00006
 295,0.00011867,0.00002168,-0.00000541,0.00002966,-0.00000287,0.0000107
 0,0.00003929,0.00000590,-0.00002161,-0.00001618,-0.00539405,-0.0036173
 8,-0.00821559,0.00101729,0.00067976,0.00110356,0.00335854,-0.01642366,
 0.01635038,0.00162139,0.00774987,-0.00264216,0.00040841,-0.00110899,-0
 .00184721,-0.00034107,0.00008947,0.00021100,0.00013411,0.00213198,-0.0
 0046518,0.00051921,-0.00025138,0.00028080,-0.04410305,-0.11846383,-0.0
 3700132,-0.04011008,-0.02074031,-0.01363676,-0.00054433,0.00470341,0.0
 0219812,0.02693795,0.19426998,0.00487155,0.00019468,0.00293841,-0.0005
 3565,-0.00001119,-0.00034853,0.01006380,-0.00358539,-0.01371594,0.0000
 8398,0.00120096,-0.00285635,-0.03313758,-0.02327018,-0.00557608,-0.003
 74666,0.00122110,-0.00683072,-0.00048901,0.00048394,0.00478795,-0.0001
 7409,-0.00055914,0.00047495,-0.00010424,-0.00007888,0.00003917,0.00020
 988,0.00020897,-0.00092095,0.00002531,-0.00000218,0.00001162,-0.000650
 57,-0.00003498,0.00098656,0.00039133,0.00010831,-0.00043594,0.00001783
 ,-0.00000315,-0.00014420,-0.00000878,0.00001982,-0.00002913,-0.0000132
 9,-0.00001988,-0.00002409,-0.00001604,-0.00000620,0.00001288,0.0012210
 9,0.00066844,0.00204652,-0.00013586,0.00003913,-0.00014961,-0.00064305
 ,0.00961248,-0.00179580,-0.00108205,-0.00268527,-0.00699410,0.00218617
 ,-0.00153284,0.00167611,-0.00038974,0.00054861,0.00017564,-0.00020216,
 0.00048151,0.00019684,0.00051014,-0.00043765,0.00013019,-0.00904727,-0
 .02905229,-0.09040697,-0.00273074,-0.00331891,0.00294158,0.01516433,0.
 01204413,0.00974935,-0.15558900,0.12502956,0.29170297,0.01169096,-0.00
 021098,-0.00099291,-0.00165009,0.00016501,-0.00105522,-0.01140456,0.00
 208735,-0.00403662,-0.00095766,0.00065587,0.00104436,0.00180027,0.0008
 4352,-0.00210217,0.00067768,-0.00007661,0.00098824,-0.00394061,-0.0011
 0657,0.00171160,-0.00013233,-0.00055993,-0.00018598,-0.00002402,-0.000
 26179,0.00014001,-0.00068504,0.00064131,0.00008421,0.00018215,-0.00000
 565,-0.00027214,0.00053521,-0.00010805,0.00001879,-0.00043152,0.000200
 41,-0.00013611,-0.00001828,-0.00004121,-0.00003091,-0.00000471,-0.0000
 0019,0.00000349,-0.00000368,-0.00000031,-0.00000003,-0.00003621,0.0000
 0341,-0.00001733,-0.00009563,-0.00007538,-0.00171502,-0.00010593,-0.00
 000197,0.00026475,-0.00018987,-0.00203759,0.00223674,0.00091470,0.0050
 6087,-0.00168621,-0.00093413,0.00095144,-0.00041098,-0.00017065,0.0000
 7637,0.00010064,0.00046295,-0.00037441,0.00082263,-0.00016568,0.000050
 78,-0.00011615,-0.03582172,0.00343952,0.01790423,0.00227316,0.00089846
 ,0.00070040,-0.00168497,-0.00325065,-0.00197484,-0.26578568,0.05781160
 ,0.17395036,0.30570590,-0.00224039,0.00090413,-0.00145586,0.00019626,-
 0.00000516,0.00004754,0.00142446,-0.00632138,0.00504900,0.00140555,-0.
 00008366,-0.00382223,-0.00083034,0.00111861,-0.00008633,-0.00005661,-0
 .00013103,-0.00013224,0.00150302,-0.00058872,0.00004270,0.00017098,0.0
 0008091,0.00046817,-0.00005220,-0.00000833,0.00016364,0.00027400,-0.00
 038923,-0.00025487,-0.00001830,0.00006214,0.00004774,-0.00031223,0.000
 05277,0.00015713,0.00018637,-0.00011029,-0.00005210,0.00002185,0.00002
 409,-0.00003041,-0.00000454,0.00000132,-0.00000885,0.00000043,-0.00000
 297,-0.00001241,0.00000455,0.00000461,0.00000769,0.00110865,0.00036667
 ,0.00209500,-0.00011210,-0.00005645,-0.00027483,-0.00224258,0.00079507
 ,-0.00061078,0.00535090,-0.00523981,-0.00157109,0.00055442,-0.00009342
 ,-0.00014558,0.00000890,-0.00000750,-0.00002986,-0.00034938,-0.0001916
 8,-0.00016826,-0.00004396,0.00001602,-0.00000377,-0.02218786,0.0043019
 7,0.01411112,-0.00087752,0.00009021,0.00079324,-0.00386770,-0.00178631
 ,-0.00123327,0.08576004,-0.05934689,-0.08726350,-0.06477465,0.06654431
 ,-0.01274784,0.00049346,-0.00826090,0.00170668,0.00010752,0.00109720,0
 .00190471,-0.00029240,0.00517396,0.00145173,-0.00144903,0.00257284,-0.
 00602191,0.00061371,0.00429168,0.00031774,0.00003783,-0.00096892,0.006
 84579,0.00068953,-0.00190782,0.00004120,0.00122067,-0.00066905,0.00011
 748,0.00027759,-0.00013059,0.00050261,-0.00092246,0.00069656,-0.000231
 00,0.00005405,0.00030383,0.00005620,0.00013934,-0.00083324,0.00007199,
 -0.00031838,0.00049505,-0.00000192,0.00005047,0.00014957,0.00001228,-0
 .00001641,0.00002160,0.00001695,0.00001505,0.00002106,0.00004780,0.000
 00274,0.00000851,-0.00059031,0.00089344,0.00144797,0.00019904,-0.00015
 316,-0.00027394,0.00054402,0.00094070,-0.00283485,-0.00099627,-0.00168
 765,0.00379113,0.00014156,-0.00044331,0.00007802,0.00040847,-0.0003767
 3,-0.00014950,-0.00001402,0.00019116,-0.00075475,0.00001084,0.00002282
 ,0.00012174,-0.00962380,0.00577463,0.00968864,-0.00066040,-0.00171907,
 -0.00029621,-0.00386455,-0.00152549,-0.00053657,0.20559276,-0.07679386
 ,-0.18764233,-0.18523785,0.07417325,0.17529931\\-0.00000088,-0.0000010
 2,-0.00000001,-0.00000186,-0.00000200,0.00000013,-0.00000043,-0.000001
 47,-0.00000055,-0.00000127,-0.00000210,-0.00000031,-0.00000032,0.00000
 191,0.00000128,-0.00000098,0.00000273,0.00000214,-0.00000137,0.0000003
 7,0.00000110,0.00000048,-0.00000097,-0.00000080,0.00000098,-0.00000191
 ,-0.00000169,-0.00000021,-0.00000122,-0.00000053,-0.00000021,-0.000000
 24,0.00000002,-0.00000100,-0.00000268,-0.00000090,-0.00000098,-0.00000
 392,-0.00000150,-0.00000151,-0.00000277,-0.00000053,-0.00000092,-0.000
 00349,-0.00000132,-0.00000273,-0.00000345,-0.00000013,-0.00000136,-0.0
 0000160,-0.00000003,0.00000166,0.00000069,-0.00000075,0.00000232,0.000
 00077,-0.00000108,0.00000283,0.00000072,-0.00000142,0.00000244,0.00000
 100,-0.00000107,0.00000101,0.00000210,0.00000054,0.00000191,0.00000318
 ,0.00000049,0.00000040,0.00000225,0.00000097,-0.00000010,0.00000308,0.
 00000180,0.00000018,0.00000234,0.00000112,-0.00000081,0.00000223,0.000
 00176,0.00000087,0.00000362,0.00000143,0.00000122,0.00000149,0.0000000
 3,0.00000064,0.00000036,-0.00000020\\\@


 A BIRD IN THE HAND IS SAFER THAN ONE OVERHEAD.

                       -- NEWTON'S SEVENTH LAW
 Job cpu time:  1 days  0 hours 29 minutes 46.7 seconds.
 File lengths (MBytes):  RWF=    839 Int=      0 D2E=      0 Chk=     24 Scr=      1
 Normal termination of Gaussian 09 at Thu Nov  1 12:01:48 2012.
