 Entering Gaussian System, Link 0=g09
 Initial command:
 /projects/nrel/apps/gaussian/g09/B.01/g09/l1.exe /scratch/hmayes/1S3am1/Gau-13048.inp -scrdir=/scratch/hmayes/1S3am1/
 Default is to use a total of   8 processors:
                                8 via shared-memory
                                1 via Linda
 Entering Link 1 = /projects/nrel/apps/gaussian/g09/B.01/g09/l1.exe PID=     13049.
  
 Copyright (c) 1988,1990,1992,1993,1995,1998,2003,2009,2010,
            Gaussian, Inc.  All Rights Reserved.
  
 This is part of the Gaussian(R) 09 program.  It is based on
 the Gaussian(R) 03 system (copyright 2003, Gaussian, Inc.),
 the Gaussian(R) 98 system (copyright 1998, Gaussian, Inc.),
 the Gaussian(R) 94 system (copyright 1995, Gaussian, Inc.),
 the Gaussian 92(TM) system (copyright 1992, Gaussian, Inc.),
 the Gaussian 90(TM) system (copyright 1990, Gaussian, Inc.),
 the Gaussian 88(TM) system (copyright 1988, Gaussian, Inc.),
 the Gaussian 86(TM) system (copyright 1986, Carnegie Mellon
 University), and the Gaussian 82(TM) system (copyright 1983,
 Carnegie Mellon University). Gaussian is a federally registered
 trademark of Gaussian, Inc.
  
 This software contains proprietary and confidential information,
 including trade secrets, belonging to Gaussian, Inc.
  
 This software is provided under written license and may be
 used, copied, transmitted, or stored only in accord with that
 written license.
  
 The following legend is applicable only to US Government
 contracts under FAR:
  
                    RESTRICTED RIGHTS LEGEND
  
 Use, reproduction and disclosure by the US Government is
 subject to restrictions as set forth in subparagraphs (a)
 and (c) of the Commercial Computer Software - Restricted
 Rights clause in FAR 52.227-19.
  
 Gaussian, Inc.
 340 Quinnipiac St., Bldg. 40, Wallingford CT 06492
  
  
 ---------------------------------------------------------------
 Warning -- This program may not be used in any manner that
 competes with the business of Gaussian, Inc. or will provide
 assistance to any competitor of Gaussian, Inc.  The licensee
 of this program is prohibited from giving any competitor of
 Gaussian, Inc. access to this program.  By using this program,
 the user acknowledges that Gaussian, Inc. is engaged in the
 business of creating and licensing software in the field of
 computational chemistry and represents and warrants to the
 licensee that it is not a competitor of Gaussian, Inc. and that
 it will not use this program in any manner prohibited above.
 ---------------------------------------------------------------
  

 Cite this work as:
 Gaussian 09, Revision B.01,
 M. J. Frisch, G. W. Trucks, H. B. Schlegel, G. E. Scuseria, 
 M. A. Robb, J. R. Cheeseman, G. Scalmani, V. Barone, B. Mennucci, 
 G. A. Petersson, H. Nakatsuji, M. Caricato, X. Li, H. P. Hratchian, 
 A. F. Izmaylov, J. Bloino, G. Zheng, J. L. Sonnenberg, M. Hada, 
 M. Ehara, K. Toyota, R. Fukuda, J. Hasegawa, M. Ishida, T. Nakajima, 
 Y. Honda, O. Kitao, H. Nakai, T. Vreven, J. A. Montgomery, Jr., 
 J. E. Peralta, F. Ogliaro, M. Bearpark, J. J. Heyd, E. Brothers, 
 K. N. Kudin, V. N. Staroverov, T. Keith, R. Kobayashi, J. Normand, 
 K. Raghavachari, A. Rendell, J. C. Burant, S. S. Iyengar, J. Tomasi, 
 M. Cossi, N. Rega, J. M. Millam, M. Klene, J. E. Knox, J. B. Cross, 
 V. Bakken, C. Adamo, J. Jaramillo, R. Gomperts, R. E. Stratmann, 
 O. Yazyev, A. J. Austin, R. Cammi, C. Pomelli, J. W. Ochterski, 
 R. L. Martin, K. Morokuma, V. G. Zakrzewski, G. A. Voth, 
 P. Salvador, J. J. Dannenberg, S. Dapprich, A. D. Daniels, 
 O. Farkas, J. B. Foresman, J. V. Ortiz, J. Cioslowski, 
 and D. J. Fox, Gaussian, Inc., Wallingford CT, 2010.
 
 ******************************************
 Gaussian 09:  EM64L-G09RevB.01 12-Aug-2010
                13-Jun-2012 
 ******************************************
 %chk=/home/hmayes/gaussian/oxane/chks/1S3am1.chk
 %mem=10GB
 %nproc=8
 Will use up to    8 processors via shared memory.
 Default route:  MaxDisk=16GB
 ------------------------------------
 # opt freq=noraman am1 geom=allcheck
 ------------------------------------
 1/14=-1,18=20,19=15,26=1,29=7,38=1/1,3;
 2/9=110,12=2,40=1/2;
 3/5=2,14=-4,16=1,25=1,41=700000,71=1/1,2,3;
 4/35=1/1;
 5/5=2,35=1,38=5/2;
 6/7=2,8=2,9=2,10=2,28=1/1;
 7//1,2,3,16;
 1/14=-1,18=20,19=15/3(2);
 2/9=110/2;
 99//99;
 2/9=110/2;
 3/5=2,14=-2,16=1,25=1,41=700000,71=1,135=20/1,2,3;
 4/5=5,16=3,35=1/1;
 5/5=2,35=1,38=5/2;
 7//1,2,3,16;
 1/14=-1,18=20,19=15/3(-5);
 2/9=110/2;
 6/7=2,8=2,9=2,10=2,19=2,28=1/1;
 99/9=1/99;
 ---------------------------------------
 from http://6ring.bio.nrc.ca/suppl.html
 ---------------------------------------
 Z-Matrix taken from the checkpoint file:
 /home/hmayes/gaussian/oxane/chks/1S3am1.chk
 Charge =  0 Multiplicity = 1
 C,0,1.276,-0.023,-0.329
 C,0,0.698,1.21,0.
 C,0,-0.657,1.093,0.329
 C,0,-1.276,0.023,-0.329
 C,0,-0.698,-1.21,0.
 O,0,0.657,-1.093,0.329
 H,0,-1.1879,0.176,-1.4107
 H,0,-2.3352,0.0018,-0.0481
 H,0,-0.7948,-1.8844,-0.8585
 H,0,-1.2334,-1.6319,0.8582
 H,0,1.1879,-0.176,-1.4107
 H,0,2.3352,-0.0018,-0.0481
 H,0,0.7948,1.8844,-0.8585
 H,0,1.2334,1.6319,0.8582
 H,0,-1.1684,2.0212,0.0496
 H,0,-0.7445,0.939,1.4106
 Recover connectivity data from disk.

 GradGradGradGradGradGradGradGradGradGradGradGradGradGradGradGradGradGrad
 Berny optimization.
 Initialization pass.
                           ----------------------------
                           !    Initial Parameters    !
                           ! (Angstroms and Degrees)  !
 --------------------------                            --------------------------
 ! Name  Definition              Value          Derivative Info.                !
 --------------------------------------------------------------------------------
 ! R1    R(1,2)                  1.4009         estimate D2E/DX2                !
 ! R2    R(1,6)                  1.4004         estimate D2E/DX2                !
 ! R3    R(1,11)                 1.096          estimate D2E/DX2                !
 ! R4    R(1,12)                 1.096          estimate D2E/DX2                !
 ! R5    R(2,3)                  1.3993         estimate D2E/DX2                !
 ! R6    R(2,13)                 1.096          estimate D2E/DX2                !
 ! R7    R(2,14)                 1.096          estimate D2E/DX2                !
 ! R8    R(3,4)                  1.4004         estimate D2E/DX2                !
 ! R9    R(3,15)                 1.096          estimate D2E/DX2                !
 ! R10   R(3,16)                 1.096          estimate D2E/DX2                !
 ! R11   R(4,5)                  1.4009         estimate D2E/DX2                !
 ! R12   R(4,7)                  1.096          estimate D2E/DX2                !
 ! R13   R(4,8)                  1.096          estimate D2E/DX2                !
 ! R14   R(5,6)                  1.3993         estimate D2E/DX2                !
 ! R15   R(5,9)                  1.096          estimate D2E/DX2                !
 ! R16   R(5,10)                 1.096          estimate D2E/DX2                !
 ! A1    A(2,1,6)              112.3196         estimate D2E/DX2                !
 ! A2    A(2,1,11)             108.7522         estimate D2E/DX2                !
 ! A3    A(2,1,12)             108.7542         estimate D2E/DX2                !
 ! A4    A(6,1,11)             108.7564         estimate D2E/DX2                !
 ! A5    A(6,1,12)             108.7556         estimate D2E/DX2                !
 ! A6    A(11,1,12)            109.4708         estimate D2E/DX2                !
 ! A7    A(1,2,3)              112.4052         estimate D2E/DX2                !
 ! A8    A(1,2,13)             108.734          estimate D2E/DX2                !
 ! A9    A(1,2,14)             108.7325         estimate D2E/DX2                !
 ! A10   A(3,2,13)             108.7325         estimate D2E/DX2                !
 ! A11   A(3,2,14)             108.7316         estimate D2E/DX2                !
 ! A12   A(13,2,14)            109.4719         estimate D2E/DX2                !
 ! A13   A(2,3,4)              112.4237         estimate D2E/DX2                !
 ! A14   A(2,3,15)             108.7295         estimate D2E/DX2                !
 ! A15   A(2,3,16)             108.7289         estimate D2E/DX2                !
 ! A16   A(4,3,15)             108.7279         estimate D2E/DX2                !
 ! A17   A(4,3,16)             108.7264         estimate D2E/DX2                !
 ! A18   A(15,3,16)            109.4711         estimate D2E/DX2                !
 ! A19   A(3,4,5)              112.3196         estimate D2E/DX2                !
 ! A20   A(3,4,7)              108.7564         estimate D2E/DX2                !
 ! A21   A(3,4,8)              108.7556         estimate D2E/DX2                !
 ! A22   A(5,4,7)              108.7522         estimate D2E/DX2                !
 ! A23   A(5,4,8)              108.7542         estimate D2E/DX2                !
 ! A24   A(7,4,8)              109.4708         estimate D2E/DX2                !
 ! A25   A(4,5,6)              112.4052         estimate D2E/DX2                !
 ! A26   A(4,5,9)              108.734          estimate D2E/DX2                !
 ! A27   A(4,5,10)             108.7325         estimate D2E/DX2                !
 ! A28   A(6,5,9)              108.7325         estimate D2E/DX2                !
 ! A29   A(6,5,10)             108.7316         estimate D2E/DX2                !
 ! A30   A(9,5,10)             109.4719         estimate D2E/DX2                !
 ! A31   A(1,6,5)              112.4237         estimate D2E/DX2                !
 ! D1    D(6,1,2,3)            -29.1177         estimate D2E/DX2                !
 ! D2    D(6,1,2,13)          -149.5572         estimate D2E/DX2                !
 ! D3    D(6,1,2,14)            91.3196         estimate D2E/DX2                !
 ! D4    D(11,1,2,3)            91.3097         estimate D2E/DX2                !
 ! D5    D(11,1,2,13)          -29.1298         estimate D2E/DX2                !
 ! D6    D(11,1,2,14)         -148.2531         estimate D2E/DX2                !
 ! D7    D(12,1,2,3)          -149.5454         estimate D2E/DX2                !
 ! D8    D(12,1,2,13)           90.0151         estimate D2E/DX2                !
 ! D9    D(12,1,2,14)          -29.1081         estimate D2E/DX2                !
 ! D10   D(2,1,6,5)             60.9227         estimate D2E/DX2                !
 ! D11   D(11,1,6,5)           -59.5022         estimate D2E/DX2                !
 ! D12   D(12,1,6,5)          -178.6504         estimate D2E/DX2                !
 ! D13   D(1,2,3,4)            -29.22           estimate D2E/DX2                !
 ! D14   D(1,2,3,15)          -149.6623         estimate D2E/DX2                !
 ! D15   D(1,2,3,16)            91.2201         estimate D2E/DX2                !
 ! D16   D(13,2,3,4)            91.2204         estimate D2E/DX2                !
 ! D17   D(13,2,3,15)          -29.222          estimate D2E/DX2                !
 ! D18   D(13,2,3,16)         -148.3396         estimate D2E/DX2                !
 ! D19   D(14,2,3,4)          -149.6577         estimate D2E/DX2                !
 ! D20   D(14,2,3,15)           89.8999         estimate D2E/DX2                !
 ! D21   D(14,2,3,16)          -29.2177         estimate D2E/DX2                !
 ! D22   D(2,3,4,5)             60.9227         estimate D2E/DX2                !
 ! D23   D(2,3,4,7)            -59.5022         estimate D2E/DX2                !
 ! D24   D(2,3,4,8)           -178.6504         estimate D2E/DX2                !
 ! D25   D(15,3,4,5)          -178.6341         estimate D2E/DX2                !
 ! D26   D(15,3,4,7)            60.941          estimate D2E/DX2                !
 ! D27   D(15,3,4,8)           -58.2071         estimate D2E/DX2                !
 ! D28   D(16,3,4,5)           -59.5188         estimate D2E/DX2                !
 ! D29   D(16,3,4,7)          -179.9437         estimate D2E/DX2                !
 ! D30   D(16,3,4,8)            60.9081         estimate D2E/DX2                !
 ! D31   D(3,4,5,6)            -29.1177         estimate D2E/DX2                !
 ! D32   D(3,4,5,9)           -149.5572         estimate D2E/DX2                !
 ! D33   D(3,4,5,10)            91.3196         estimate D2E/DX2                !
 ! D34   D(7,4,5,6)             91.3097         estimate D2E/DX2                !
 ! D35   D(7,4,5,9)            -29.1298         estimate D2E/DX2                !
 ! D36   D(7,4,5,10)          -148.2531         estimate D2E/DX2                !
 ! D37   D(8,4,5,6)           -149.5454         estimate D2E/DX2                !
 ! D38   D(8,4,5,9)             90.0151         estimate D2E/DX2                !
 ! D39   D(8,4,5,10)           -29.1081         estimate D2E/DX2                !
 ! D40   D(4,5,6,1)            -29.22           estimate D2E/DX2                !
 ! D41   D(9,5,6,1)             91.2204         estimate D2E/DX2                !
 ! D42   D(10,5,6,1)          -149.6577         estimate D2E/DX2                !
 --------------------------------------------------------------------------------
 Trust Radius=3.00D-01 FncErr=1.00D-07 GrdErr=1.00D-07
 Number of steps in this run=     99 maximum allowed number of steps=    100.
 GradGradGradGradGradGradGradGradGradGradGradGradGradGradGradGradGradGrad

                          Input orientation:                          
 ---------------------------------------------------------------------
 Center     Atomic      Atomic             Coordinates (Angstroms)
 Number     Number       Type             X           Y           Z
 ---------------------------------------------------------------------
      1          6           0        1.276000   -0.023000   -0.329000
      2          6           0        0.698000    1.210000    0.000000
      3          6           0       -0.657000    1.093000    0.329000
      4          6           0       -1.276000    0.023000   -0.329000
      5          6           0       -0.698000   -1.210000    0.000000
      6          8           0        0.657000   -1.093000    0.329000
      7          1           0       -1.187900    0.176000   -1.410700
      8          1           0       -2.335200    0.001800   -0.048100
      9          1           0       -0.794800   -1.884400   -0.858500
     10          1           0       -1.233400   -1.631900    0.858200
     11          1           0        1.187900   -0.176000   -1.410700
     12          1           0        2.335200   -0.001800   -0.048100
     13          1           0        0.794800    1.884400   -0.858500
     14          1           0        1.233400    1.631900    0.858200
     15          1           0       -1.168400    2.021200    0.049600
     16          1           0       -0.744500    0.939000    1.410600
 ---------------------------------------------------------------------
                    Distance matrix (angstroms):
                    1          2          3          4          5
     1  C    0.000000
     2  C    1.400933   0.000000
     3  C    2.326996   1.399269   0.000000
     4  C    2.552415   2.326776   1.400366   0.000000
     5  C    2.326776   2.793782   2.326743   1.400933   0.000000
     6  O    1.400366   2.326743   2.550528   2.326996   1.399269
     7  H    2.698236   2.572129   2.036983   1.096013   2.037418
     8  H    3.622193   3.265327   2.036977   1.096020   2.037449
     9  H    2.834324   3.541297   3.208435   2.037179   1.095996
    10  H    3.208596   3.541639   2.835026   2.037143   1.095974
    11  H    1.096013   2.037418   2.835590   2.698236   2.572129
    12  H    1.096020   2.037449   3.208435   3.622193   3.265327
    13  H    2.037179   1.095996   2.035729   2.834324   3.541297
    14  H    2.037143   1.095974   2.035701   3.208596   3.541639
    15  H    3.208922   2.035671   1.095970   2.036595   3.265638
    16  H    2.834444   2.035691   1.096007   2.036604   2.571022
                    6          7          8          9         10
     6  O    0.000000
     7  H    2.835590   0.000000
     8  H    3.208435   1.789783   0.000000
     9  H    2.035729   2.169032   2.566580   0.000000
    10  H    2.035701   2.901462   2.168944   1.789744   0.000000
    11  H    2.036983   2.401735   3.781604   2.674819   3.623568
    12  H    2.036977   3.781604   4.670401   3.741368   4.026601
    13  H    3.208435   2.674819   3.741368   4.090316   4.407382
    14  H    2.835026   3.623568   4.026601   4.407382   4.091148
    15  H    3.620551   2.353215   2.334297   4.027150   3.742085
    16  H    2.695011   2.956096   2.352972   3.622559   2.674639
                   11         12         13         14         15
    11  H    0.000000
    12  H    1.789783   0.000000
    13  H    2.169032   2.566580   0.000000
    14  H    2.901462   2.168944   1.789744   0.000000
    15  H    3.537275   4.046886   2.167375   2.563987   0.000000
    16  H    3.596822   3.535175   2.900352   2.167336   1.789740
                   16
    16  H    0.000000
 Stoichiometry    C5H10O
 Framework group  C1[X(C5H10O)]
 Deg. of freedom    42
 Full point group                 C1      NOp   1
 Largest Abelian subgroup         C1      NOp   1
 Largest concise Abelian subgroup C1      NOp   1
                         Standard orientation:                         
 ---------------------------------------------------------------------
 Center     Atomic      Atomic             Coordinates (Angstroms)
 Number     Number       Type             X           Y           Z
 ---------------------------------------------------------------------
      1          6           0       -0.855943   -0.971688    0.287122
      2          6           0       -1.355789    0.303602   -0.006824
      3          6           0       -0.340685    1.216919   -0.312391
      4          6           0        0.863003    0.914480    0.336215
      5          6           0        1.362064   -0.342975   -0.027597
      6          8           0        0.346176   -1.238457   -0.379787
      7          1           0        0.692571    0.926155    1.418833
      8          1           0        1.605403    1.677286    0.075009
      9          1           0        1.919824   -0.758804    0.819279
     10          1           0        2.035392   -0.220217   -0.883588
     11          1           0       -0.682932   -1.042002    1.367108
     12          1           0       -1.599013   -1.719267   -0.013265
     13          1           0       -1.911501    0.672891    0.862669
     14          1           0       -2.031163    0.227367   -0.866601
     15          1           0       -0.663958    2.218105   -0.005356
     16          1           0       -0.169938    1.204118   -1.394940
 ---------------------------------------------------------------------
 Rotational constants (GHZ):      5.2780894      4.9249487      2.9881966
 Standard basis: VSTO-6G (5D, 7F)
 There are    34 symmetry adapted basis functions of A   symmetry.
 Integral buffers will be    131072 words long.
 Regular integral format.
 Two-electron integral symmetry is turned off.
    34 basis functions,   204 primitive gaussians,    34 cartesian basis functions
    18 alpha electrons       18 beta electrons
       nuclear repulsion energy       172.4872968652 Hartrees.
 Do NDO integrals.
 One-electron integrals computed using PRISM.
 NBasis=    34 RedAO= F  NBF=    34
 NBsUse=    34 1.00D-04 NBFU=    34
 Simple Huckel Guess.
 Initial guess orbital symmetries:
       Occupied  (A) (A) (A) (A) (A) (A) (A) (A) (A) (A) (A) (A)
                 (A) (A) (A) (A) (A) (A)
       Virtual   (A) (A) (A) (A) (A) (A) (A) (A) (A) (A) (A) (A)
                 (A) (A) (A) (A)
 The electronic state of the initial guess is 1-A.
 Requested convergence on RMS density matrix=1.00D-08 within 128 cycles.
 Requested convergence on MAX density matrix=1.00D-06.
 Requested convergence on             energy=1.00D-06.
 No special actions if energy rises.
 Overlap will be assumed to be unity.
 Keep J ints in memory in canonical form, NReq=883512.
 SCF Done:  E(RAM1) = -0.267189500951E-01 A.U. after   13 cycles
             Convg  =    0.5902D-08             -V/T =  0.9989

 **********************************************************************

            Population analysis using the SCF density.

 **********************************************************************

 Orbital symmetries:
       Occupied  (A) (A) (A) (A) (A) (A) (A) (A) (A) (A) (A) (A)
                 (A) (A) (A) (A) (A) (A)
       Virtual   (A) (A) (A) (A) (A) (A) (A) (A) (A) (A) (A) (A)
                 (A) (A) (A) (A)
 The electronic state is 1-A.
 Alpha  occ. eigenvalues --   -1.57424  -1.31686  -1.23296  -0.98680  -0.90915
 Alpha  occ. eigenvalues --   -0.71168  -0.68541  -0.66421  -0.64007  -0.54875
 Alpha  occ. eigenvalues --   -0.53026  -0.50220  -0.49630  -0.47415  -0.45661
 Alpha  occ. eigenvalues --   -0.42427  -0.40058  -0.37472
 Alpha virt. eigenvalues --    0.11122   0.13035   0.13732   0.14226   0.14695
 Alpha virt. eigenvalues --    0.15465   0.16092   0.17077   0.17113   0.17706
 Alpha virt. eigenvalues --    0.17990   0.19026   0.19199   0.19541   0.19726
 Alpha virt. eigenvalues --    0.23804
          Condensed to atoms (all electrons):
              1          2          3          4          5          6
     1  C    4.011809   0.000000   0.000000   0.000000   0.000000   0.000000
     2  C    0.000000   4.196221   0.000000   0.000000   0.000000   0.000000
     3  C    0.000000   0.000000   4.153575   0.000000   0.000000   0.000000
     4  C    0.000000   0.000000   0.000000   4.197673   0.000000   0.000000
     5  C    0.000000   0.000000   0.000000   0.000000   4.012906   0.000000
     6  O    0.000000   0.000000   0.000000   0.000000   0.000000   6.263127
     7  H    0.000000   0.000000   0.000000   0.000000   0.000000   0.000000
     8  H    0.000000   0.000000   0.000000   0.000000   0.000000   0.000000
     9  H    0.000000   0.000000   0.000000   0.000000   0.000000   0.000000
    10  H    0.000000   0.000000   0.000000   0.000000   0.000000   0.000000
    11  H    0.000000   0.000000   0.000000   0.000000   0.000000   0.000000
    12  H    0.000000   0.000000   0.000000   0.000000   0.000000   0.000000
    13  H    0.000000   0.000000   0.000000   0.000000   0.000000   0.000000
    14  H    0.000000   0.000000   0.000000   0.000000   0.000000   0.000000
    15  H    0.000000   0.000000   0.000000   0.000000   0.000000   0.000000
    16  H    0.000000   0.000000   0.000000   0.000000   0.000000   0.000000
              7          8          9         10         11         12
     1  C    0.000000   0.000000   0.000000   0.000000   0.000000   0.000000
     2  C    0.000000   0.000000   0.000000   0.000000   0.000000   0.000000
     3  C    0.000000   0.000000   0.000000   0.000000   0.000000   0.000000
     4  C    0.000000   0.000000   0.000000   0.000000   0.000000   0.000000
     5  C    0.000000   0.000000   0.000000   0.000000   0.000000   0.000000
     6  O    0.000000   0.000000   0.000000   0.000000   0.000000   0.000000
     7  H    0.917291   0.000000   0.000000   0.000000   0.000000   0.000000
     8  H    0.000000   0.909325   0.000000   0.000000   0.000000   0.000000
     9  H    0.000000   0.000000   0.937098   0.000000   0.000000   0.000000
    10  H    0.000000   0.000000   0.000000   0.905542   0.000000   0.000000
    11  H    0.000000   0.000000   0.000000   0.000000   0.943916   0.000000
    12  H    0.000000   0.000000   0.000000   0.000000   0.000000   0.895535
    13  H    0.000000   0.000000   0.000000   0.000000   0.000000   0.000000
    14  H    0.000000   0.000000   0.000000   0.000000   0.000000   0.000000
    15  H    0.000000   0.000000   0.000000   0.000000   0.000000   0.000000
    16  H    0.000000   0.000000   0.000000   0.000000   0.000000   0.000000
             13         14         15         16
     1  C    0.000000   0.000000   0.000000   0.000000
     2  C    0.000000   0.000000   0.000000   0.000000
     3  C    0.000000   0.000000   0.000000   0.000000
     4  C    0.000000   0.000000   0.000000   0.000000
     5  C    0.000000   0.000000   0.000000   0.000000
     6  O    0.000000   0.000000   0.000000   0.000000
     7  H    0.000000   0.000000   0.000000   0.000000
     8  H    0.000000   0.000000   0.000000   0.000000
     9  H    0.000000   0.000000   0.000000   0.000000
    10  H    0.000000   0.000000   0.000000   0.000000
    11  H    0.000000   0.000000   0.000000   0.000000
    12  H    0.000000   0.000000   0.000000   0.000000
    13  H    0.916491   0.000000   0.000000   0.000000
    14  H    0.000000   0.910856   0.000000   0.000000
    15  H    0.000000   0.000000   0.918097   0.000000
    16  H    0.000000   0.000000   0.000000   0.910540
 Mulliken atomic charges:
              1
     1  C   -0.011809
     2  C   -0.196221
     3  C   -0.153575
     4  C   -0.197673
     5  C   -0.012906
     6  O   -0.263127
     7  H    0.082709
     8  H    0.090675
     9  H    0.062902
    10  H    0.094458
    11  H    0.056084
    12  H    0.104465
    13  H    0.083509
    14  H    0.089144
    15  H    0.081903
    16  H    0.089460
 Sum of Mulliken atomic charges =   0.00000
 Mulliken charges with hydrogens summed into heavy atoms:
              1
     1  C    0.148741
     2  C   -0.023568
     3  C    0.017788
     4  C   -0.024289
     5  C    0.144454
     6  O   -0.263127
 Sum of Mulliken charges with hydrogens summed into heavy atoms =   0.00000
 Charge=              0.0000 electrons
 Dipole moment (field-independent basis, Debye):
    X=             -0.3153    Y=              1.3696    Z=              0.8380  Tot=              1.6363
 N-N= 1.724872968652D+02 E-N=-2.953303381916D+02  KE=-2.383922436003D+01
 Calling FoFJK, ICntrl=      2127 FMM=F ISym2X=0 I1Cent= 0 IOpClX= 0 NMat=1 NMatS=1 NMatT=0.
 ***** Axes restored to original set *****
 -------------------------------------------------------------------
 Center     Atomic                   Forces (Hartrees/Bohr)
 Number     Number              X              Y              Z
 -------------------------------------------------------------------
      1        6           0.059499939   -0.076016686   -0.035279247
      2        6           0.063020391    0.106209595    0.003612383
      3        6          -0.065041763    0.087604431    0.070237033
      4        6          -0.103874561    0.011721448   -0.068578599
      5        6           0.020280905   -0.095074290    0.012889503
      6        8           0.034094029   -0.043537586    0.031985993
      7        1          -0.006430396    0.005242365   -0.028955125
      8        1          -0.028947849    0.000302043   -0.001475831
      9        1           0.000547470   -0.023181288   -0.015772933
     10        1          -0.000388210   -0.016766595    0.021787694
     11        1           0.004201396   -0.009611787   -0.027203606
     12        1           0.021950778   -0.013692440    0.006594743
     13        1           0.008937015    0.021713723   -0.017556856
     14        1           0.015174126    0.018158959    0.017207707
     15        1          -0.015689524    0.024822519    0.001672912
     16        1          -0.007333745    0.002105587    0.028834227
 -------------------------------------------------------------------
 Cartesian Forces:  Max     0.106209595 RMS     0.040905863

 GradGradGradGradGradGradGradGradGradGradGradGradGradGradGradGradGradGrad
 Berny optimization.
 Internal  Forces:  Max     0.160584033 RMS     0.035542809
 Search for a local minimum.
 Step number   1 out of a maximum of   99
 All quantities printed in internal units (Hartrees-Bohrs-Radians)
 Mixed Optimization -- RFO/linear search
 Second derivative matrix not updated -- first step.
 ITU=  0
     Eigenvalues ---    0.02025   0.02164   0.02478   0.04000   0.04214
     Eigenvalues ---    0.05298   0.05623   0.05854   0.06161   0.06318
     Eigenvalues ---    0.06706   0.07199   0.07322   0.08486   0.09031
     Eigenvalues ---    0.09047   0.09051   0.10195   0.11650   0.11710
     Eigenvalues ---    0.11725   0.12645   0.13551   0.19121   0.20524
     Eigenvalues ---    0.22725   0.34126   0.34126   0.34127   0.34127
     Eigenvalues ---    0.34128   0.34129   0.34129   0.34131   0.34131
     Eigenvalues ---    0.34132   0.39255   0.40272   0.42742   0.45484
     Eigenvalues ---    0.45586   0.45711
 RFO step:  Lambda=-1.83415318D-01 EMin= 2.02483567D-02
 Linear search not attempted -- first point.
 Maximum step size (   0.300) exceeded in Quadratic search.
    -- Step size scaled by   0.553
 Iteration  1 RMS(Cart)=  0.05743674 RMS(Int)=  0.00041707
 Iteration  2 RMS(Cart)=  0.00041827 RMS(Int)=  0.00022471
 Iteration  3 RMS(Cart)=  0.00000019 RMS(Int)=  0.00022471
 Variable       Old X    -DE/DX   Delta X   Delta X   Delta X     New X
                                 (Linear)    (Quad)   (Total)
    R1        2.64738   0.16058   0.00000   0.13910   0.13907   2.78645
    R2        2.64631   0.05706   0.00000   0.04403   0.04353   2.68984
    R3        2.07117   0.02785   0.00000   0.02936   0.02936   2.10053
    R4        2.07118   0.02264   0.00000   0.02387   0.02387   2.09504
    R5        2.64424   0.14980   0.00000   0.13445   0.13494   2.77917
    R6        2.07113   0.02790   0.00000   0.02942   0.02942   2.10055
    R7        2.07109   0.02788   0.00000   0.02939   0.02939   2.10048
    R8        2.64631   0.14752   0.00000   0.13071   0.13103   2.77733
    R9        2.07108   0.02792   0.00000   0.02943   0.02943   2.10051
   R10        2.07115   0.02874   0.00000   0.03030   0.03030   2.10146
   R11        2.64738   0.15627   0.00000   0.13675   0.13685   2.78423
   R12        2.07117   0.02879   0.00000   0.03035   0.03035   2.10152
   R13        2.07118   0.02759   0.00000   0.02909   0.02909   2.10027
   R14        2.64424   0.06005   0.00000   0.04786   0.04746   2.69169
   R15        2.07113   0.02657   0.00000   0.02801   0.02801   2.09914
   R16        2.07109   0.02370   0.00000   0.02499   0.02499   2.09608
    A1        1.96035   0.01317   0.00000   0.01317   0.01269   1.97303
    A2        1.89808   0.00525   0.00000   0.00938   0.00932   1.90740
    A3        1.89812   0.00691   0.00000   0.01859   0.01886   1.91698
    A4        1.89816  -0.00863   0.00000  -0.00999  -0.00989   1.88827
    A5        1.89814  -0.01260   0.00000  -0.02205  -0.02213   1.87601
    A6        1.91063  -0.00444   0.00000  -0.00964  -0.00994   1.90068
    A7        1.96184  -0.01190   0.00000  -0.00728  -0.00682   1.95502
    A8        1.89777   0.00349   0.00000   0.00156   0.00140   1.89917
    A9        1.89774   0.00509   0.00000   0.00631   0.00621   1.90395
   A10        1.89774   0.00911   0.00000   0.01097   0.01076   1.90850
   A11        1.89772   0.00068   0.00000  -0.00065  -0.00069   1.89704
   A12        1.91065  -0.00657   0.00000  -0.01127  -0.01120   1.89945
   A13        1.96216  -0.01207   0.00000  -0.01087  -0.01046   1.95171
   A14        1.89769   0.01311   0.00000   0.01660   0.01628   1.91396
   A15        1.89768  -0.00301   0.00000  -0.00390  -0.00382   1.89386
   A16        1.89766   0.00393   0.00000   0.00731   0.00726   1.90492
   A17        1.89763   0.00440   0.00000   0.00182   0.00160   1.89923
   A18        1.91063  -0.00647   0.00000  -0.01129  -0.01121   1.89942
   A19        1.96035  -0.01169   0.00000  -0.00956  -0.00917   1.95118
   A20        1.89816   0.00866   0.00000   0.00641   0.00607   1.90423
   A21        1.89814   0.00008   0.00000   0.00329   0.00341   1.90155
   A22        1.89808  -0.00287   0.00000  -0.00301  -0.00288   1.89521
   A23        1.89812   0.01226   0.00000   0.01404   0.01372   1.91184
   A24        1.91063  -0.00656   0.00000  -0.01151  -0.01144   1.89919
   A25        1.96184   0.01220   0.00000   0.01535   0.01511   1.97695
   A26        1.89777   0.00524   0.00000   0.01090   0.01088   1.90864
   A27        1.89774   0.00812   0.00000   0.01743   0.01755   1.91529
   A28        1.89774  -0.01154   0.00000  -0.01376  -0.01364   1.88410
   A29        1.89772  -0.01005   0.00000  -0.02149  -0.02179   1.87594
   A30        1.91065  -0.00430   0.00000  -0.00901  -0.00932   1.90132
   A31        1.96216   0.01845   0.00000   0.01748   0.01685   1.97902
    D1       -0.50820   0.00421   0.00000   0.00450   0.00435  -0.50385
    D2       -2.61026  -0.00201   0.00000  -0.00569  -0.00575  -2.61601
    D3        1.59383   0.00095   0.00000   0.00333   0.00334   1.59717
    D4        1.59365   0.00530   0.00000   0.00666   0.00648   1.60013
    D5       -0.50841  -0.00093   0.00000  -0.00353  -0.00362  -0.51203
    D6       -2.58750   0.00203   0.00000   0.00549   0.00547  -2.58204
    D7       -2.61006   0.00698   0.00000   0.01122   0.01111  -2.59895
    D8        1.57106   0.00075   0.00000   0.00103   0.00101   1.57207
    D9       -0.50803   0.00371   0.00000   0.01005   0.01009  -0.49794
   D10        1.06330   0.00388   0.00000  -0.00105  -0.00135   1.06195
   D11       -1.03851  -0.00523   0.00000  -0.01441  -0.01438  -1.05289
   D12       -3.11804   0.01240   0.00000   0.01572   0.01521  -3.10283
   D13       -0.50998   0.00173   0.00000   0.00670   0.00673  -0.50325
   D14       -2.61210  -0.00441   0.00000  -0.00683  -0.00672  -2.61882
   D15        1.59209  -0.00246   0.00000  -0.00056  -0.00037   1.59172
   D16        1.59210   0.00471   0.00000   0.01146   0.01142   1.60351
   D17       -0.51002  -0.00143   0.00000  -0.00206  -0.00204  -0.51206
   D18       -2.58901   0.00053   0.00000   0.00420   0.00431  -2.58470
   D19       -2.61202   0.00245   0.00000   0.00386   0.00374  -2.60828
   D20        1.56905  -0.00369   0.00000  -0.00967  -0.00972   1.55933
   D21       -0.50994  -0.00173   0.00000  -0.00341  -0.00337  -0.51331
   D22        1.06330  -0.01738   0.00000  -0.02660  -0.02616   1.03714
   D23       -1.03851  -0.01222   0.00000  -0.02109  -0.02081  -1.05932
   D24       -3.11804  -0.00937   0.00000  -0.01285  -0.01252  -3.13056
   D25       -3.11775  -0.00594   0.00000  -0.00772  -0.00750  -3.12525
   D26        1.06362  -0.00078   0.00000  -0.00220  -0.00215   1.06147
   D27       -1.01591   0.00206   0.00000   0.00604   0.00614  -1.00976
   D28       -1.03880  -0.00892   0.00000  -0.01603  -0.01588  -1.05468
   D29       -3.14061  -0.00376   0.00000  -0.01052  -0.01053   3.13204
   D30        1.06305  -0.00091   0.00000  -0.00228  -0.00224   1.06081
   D31       -0.50820  -0.00518   0.00000   0.00035   0.00070  -0.50750
   D32       -2.61026  -0.00200   0.00000   0.00046   0.00062  -2.60964
   D33        1.59383  -0.00453   0.00000  -0.00505  -0.00491   1.58892
   D34        1.59365  -0.00367   0.00000   0.00029   0.00058   1.59424
   D35       -0.50841  -0.00049   0.00000   0.00040   0.00051  -0.50790
   D36       -2.58750  -0.00302   0.00000  -0.00511  -0.00502  -2.59252
   D37       -2.61006  -0.00614   0.00000  -0.00719  -0.00696  -2.61702
   D38        1.57106  -0.00296   0.00000  -0.00708  -0.00704   1.56402
   D39       -0.50803  -0.00549   0.00000  -0.01259  -0.01257  -0.52060
   D40       -0.50998  -0.00108   0.00000  -0.00081  -0.00070  -0.51069
   D41        1.59210   0.00542   0.00000   0.01331   0.01323   1.60533
   D42       -2.61202  -0.01221   0.00000  -0.01788  -0.01737  -2.62939
         Item               Value     Threshold  Converged?
 Maximum Force            0.160584     0.000450     NO 
 RMS     Force            0.035543     0.000300     NO 
 Maximum Displacement     0.147819     0.001800     NO 
 RMS     Displacement     0.057435     0.001200     NO 
 Predicted change in Energy=-8.196010D-02
 GradGradGradGradGradGradGradGradGradGradGradGradGradGradGradGradGradGrad

                          Input orientation:                          
 ---------------------------------------------------------------------
 Center     Atomic      Atomic             Coordinates (Angstroms)
 Number     Number       Type             X           Y           Z
 ---------------------------------------------------------------------
      1          6           0        1.319964   -0.046615   -0.337553
      2          6           0        0.731760    1.261526    0.004510
      3          6           0       -0.694133    1.152046    0.347620
      4          6           0       -1.337298    0.025247   -0.342805
      5          6           0       -0.700524   -1.259417   -0.003800
      6          8           0        0.680642   -1.134448    0.321202
      7          1           0       -1.260615    0.179891   -1.441403
      8          1           0       -2.411498   -0.006075   -0.059343
      9          1           0       -0.787677   -1.952749   -0.867290
     10          1           0       -1.209619   -1.710123    0.872560
     11          1           0        1.239971   -0.209654   -1.434169
     12          1           0        2.390216   -0.064879   -0.048885
     13          1           0        0.850230    1.945824   -0.863403
     14          1           0        1.275810    1.688329    0.874762
     15          1           0       -1.217869    2.093700    0.074642
     16          1           0       -0.782260    0.997597    1.445353
 ---------------------------------------------------------------------
                    Distance matrix (angstroms):
                    1          2          3          4          5
     1  C    0.000000
     2  C    1.474525   0.000000
     3  C    2.441892   1.470674   0.000000
     4  C    2.658238   2.435163   1.469702   0.000000
     5  C    2.380053   2.899425   2.436943   1.473353   0.000000
     6  O    1.423401   2.417354   2.668100   2.420306   1.424382
     7  H    2.815879   2.688896   2.113431   1.112076   2.109980
     8  H    3.742039   3.389833   2.110973   1.111412   2.121647
     9  H    2.890695   3.660641   3.335342   2.118876   1.110819
    10  H    3.260433   3.654198   2.955215   2.122480   1.109198
    11  H    1.111552   2.119539   2.961378   2.808660   2.629350
    12  H    1.108649   2.124306   3.339361   3.740170   3.313854
    13  H    2.113523   1.111562   2.117006   2.957180   3.662967
    14  H    2.117000   1.111526   2.108591   3.328160   3.656087
    15  H    3.345361   2.120963   1.111543   2.113533   3.393699
    16  H    2.947623   2.106643   1.112043   2.109750   2.683438
                    6          7          8          9         10
     6  O    0.000000
     7  H    2.933043   0.000000
     8  H    3.313514   1.808095   0.000000
     9  H    2.058662   2.258634   2.660660   0.000000
    10  H    2.051459   2.988173   2.284017   1.806649   0.000000
    11  H    2.061413   2.530756   3.907022   2.733330   3.684142
    12  H    2.050264   3.915046   4.802086   3.785874   4.063828
    13  H    3.304561   2.812165   3.885266   4.228667   4.541199
    14  H    2.937468   3.751461   4.164109   4.533230   4.210325
    15  H    3.753141   2.441902   2.419041   4.176846   3.886619
    16  H    2.819471   3.038228   2.434314   3.748718   2.800442
                   11         12         13         14         15
    11  H    0.000000
    12  H    1.806388   0.000000
    13  H    2.263572   2.660437   0.000000
    14  H    2.989112   2.273491   1.807938   0.000000
    15  H    3.690925   4.206304   2.275704   2.650085   0.000000
    16  H    3.720017   3.664179   2.982367   2.244624   1.808326
                   16
    16  H    0.000000
 Stoichiometry    C5H10O
 Framework group  C1[X(C5H10O)]
 Deg. of freedom    42
 Full point group                 C1      NOp   1
 Largest Abelian subgroup         C1      NOp   1
 Largest concise Abelian subgroup C1      NOp   1
                         Standard orientation:                         
 ---------------------------------------------------------------------
 Center     Atomic      Atomic             Coordinates (Angstroms)
 Number     Number       Type             X           Y           Z
 ---------------------------------------------------------------------
      1          6           0       -0.795662   -1.077076    0.291940
      2          6           0       -1.435516    0.218896   -0.000063
      3          6           0       -0.448565    1.261569   -0.318878
      4          6           0        0.837429    1.019552    0.350205
      5          6           0        1.421069   -0.276173   -0.038677
      6          8           0        0.443493   -1.252084   -0.386247
      7          1           0        0.680957    1.021698    1.451216
      8          1           0        1.541190    1.838365    0.086570
      9          1           0        2.020916   -0.678005    0.805499
     10          1           0        2.083252   -0.139935   -0.918037
     11          1           0       -0.607321   -1.155601    1.384601
     12          1           0       -1.464699   -1.905137   -0.017588
     13          1           0       -2.029923    0.532766    0.885226
     14          1           0       -2.119982    0.099066   -0.867610
     15          1           0       -0.839902    2.254495   -0.008265
     16          1           0       -0.284962    1.268352   -1.418800
 ---------------------------------------------------------------------
 Rotational constants (GHZ):      4.8782301      4.6088380      2.7637985
 Standard basis: VSTO-6G (5D, 7F)
 There are    34 symmetry adapted basis functions of A   symmetry.
 Integral buffers will be    131072 words long.
 Regular integral format.
 Two-electron integral symmetry is turned off.
    34 basis functions,   204 primitive gaussians,    34 cartesian basis functions
    18 alpha electrons       18 beta electrons
       nuclear repulsion energy       168.9535087900 Hartrees.
 Do NDO integrals.
 One-electron integrals computed using PRISM.
 NBasis=    34 RedAO= F  NBF=    34
 NBsUse=    34 1.00D-04 NBFU=    34
 Initial guess read from the read-write file.
 B after Tr=     0.000000    0.000000    0.000000
         Rot=    1.000000    0.000000    0.000000    0.000000 Ang=   0.00 deg.
 Initial guess orbital symmetries:
       Occupied  (A) (A) (A) (A) (A) (A) (A) (A) (A) (A) (A) (A)
                 (A) (A) (A) (A) (A) (A)
       Virtual   (A) (A) (A) (A) (A) (A) (A) (A) (A) (A) (A) (A)
                 (A) (A) (A) (A)
 Requested convergence on RMS density matrix=1.00D-08 within 128 cycles.
 Requested convergence on MAX density matrix=1.00D-06.
 Requested convergence on             energy=1.00D-06.
 No special actions if energy rises.
 Overlap will be assumed to be unity.
 Keep J ints in memory in canonical form, NReq=883512.
 SCF Done:  E(RAM1) = -0.916047120981E-01 A.U. after   12 cycles
             Convg  =    0.3994D-08             -V/T =  0.9961
 Calling FoFJK, ICntrl=      2127 FMM=F ISym2X=0 I1Cent= 0 IOpClX= 0 NMat=1 NMatS=1 NMatT=0.
 ***** Axes restored to original set *****
 -------------------------------------------------------------------
 Center     Atomic                   Forces (Hartrees/Bohr)
 Number     Number              X              Y              Z
 -------------------------------------------------------------------
      1        6           0.008279198   -0.027573633   -0.011800849
      2        6           0.018171959    0.030237923    0.002329518
      3        6          -0.019303334    0.026154826    0.021561862
      4        6          -0.030248847    0.004080044   -0.021011324
      5        6           0.013480350   -0.023817716    0.001683405
      6        8           0.008282025   -0.007218620    0.009179174
      7        1          -0.003360025    0.002624030   -0.010277859
      8        1          -0.010084274   -0.001049300   -0.001390758
      9        1           0.000920822   -0.009599541   -0.006746831
     10        1           0.003304628   -0.006612636    0.010731210
     11        1           0.001538510   -0.003751496   -0.011369793
     12        1           0.007819649   -0.008529592    0.005503287
     13        1           0.004248475    0.007713606   -0.005684059
     14        1           0.005910124    0.007391238    0.005360084
     15        1          -0.005130710    0.008755276    0.001424014
     16        1          -0.003828548    0.001195590    0.010508919
 -------------------------------------------------------------------
 Cartesian Forces:  Max     0.030248847 RMS     0.012396277

 GradGradGradGradGradGradGradGradGradGradGradGradGradGradGradGradGradGrad
 Berny optimization.
 Using GEDIIS/GDIIS optimizer.
 Internal  Forces:  Max     0.050455539 RMS     0.011215472
 Search for a local minimum.
 Step number   2 out of a maximum of   99
 All quantities printed in internal units (Hartrees-Bohrs-Radians)
 Mixed Optimization -- RFO/linear search
 Update second derivatives using D2CorX and points    1    2
 DE= -6.49D-02 DEPred=-8.20D-02 R= 7.92D-01
 SS=  1.41D+00  RLast= 3.06D-01 DXNew= 5.0454D-01 9.1856D-01
 Trust test= 7.92D-01 RLast= 3.06D-01 DXMaxT set to 5.05D-01
 ITU=  1  0
 Use linear search instead of GDIIS.
     Eigenvalues ---    0.02022   0.02163   0.02474   0.03978   0.04197
     Eigenvalues ---    0.05285   0.05609   0.05784   0.06161   0.06305
     Eigenvalues ---    0.06713   0.07092   0.07229   0.08445   0.08978
     Eigenvalues ---    0.08989   0.09012   0.10197   0.11727   0.11887
     Eigenvalues ---    0.11978   0.12638   0.13629   0.19125   0.20538
     Eigenvalues ---    0.22682   0.34114   0.34126   0.34127   0.34127
     Eigenvalues ---    0.34128   0.34128   0.34130   0.34131   0.34131
     Eigenvalues ---    0.34563   0.39694   0.40569   0.42974   0.45551
     Eigenvalues ---    0.45589   0.78846
 RFO step:  Lambda=-5.88262496D-03 EMin= 2.02225220D-02
 Quartic linear search produced a step of  0.60465.
 Iteration  1 RMS(Cart)=  0.05187780 RMS(Int)=  0.00141098
 Iteration  2 RMS(Cart)=  0.00145412 RMS(Int)=  0.00051534
 Iteration  3 RMS(Cart)=  0.00000145 RMS(Int)=  0.00051534
 Iteration  4 RMS(Cart)=  0.00000000 RMS(Int)=  0.00051534
 Variable       Old X    -DE/DX   Delta X   Delta X   Delta X     New X
                                 (Linear)    (Quad)   (Total)
    R1        2.78645   0.05046   0.08409  -0.00181   0.08218   2.86863
    R2        2.68984   0.00758   0.02632  -0.04228  -0.01653   2.67331
    R3        2.10053   0.01166   0.01775   0.01475   0.03251   2.13304
    R4        2.09504   0.00912   0.01443   0.01037   0.02480   2.11984
    R5        2.77917   0.04660   0.08159   0.00180   0.08390   2.86308
    R6        2.10055   0.00964   0.01779   0.00537   0.02315   2.12370
    R7        2.10048   0.00993   0.01777   0.00673   0.02450   2.12498
    R8        2.77733   0.04610   0.07923   0.00055   0.08016   2.85749
    R9        2.10051   0.00948   0.01779   0.00463   0.02243   2.12294
   R10        2.10146   0.01051   0.01832   0.00821   0.02653   2.12799
   R11        2.78423   0.04917   0.08275   0.00156   0.08445   2.86868
   R12        2.10152   0.01029   0.01835   0.00711   0.02546   2.12698
   R13        2.10027   0.00942   0.01759   0.00480   0.02239   2.12265
   R14        2.69169   0.00880   0.02869  -0.03815  -0.00990   2.68180
   R15        2.09914   0.01116   0.01694   0.01428   0.03121   2.13036
   R16        2.09608   0.00965   0.01511   0.01130   0.02641   2.12249
    A1        1.97303   0.00538   0.00767  -0.00626   0.00060   1.97364
    A2        1.90740   0.00264   0.00563   0.03140   0.03610   1.94350
    A3        1.91698   0.00376   0.01140   0.02769   0.03835   1.95533
    A4        1.88827  -0.00249  -0.00598   0.01757   0.01131   1.89958
    A5        1.87601  -0.00843  -0.01338  -0.07808  -0.09107   1.78494
    A6        1.90068  -0.00130  -0.00601   0.00654  -0.00131   1.89937
    A7        1.95502  -0.00478  -0.00412  -0.00160  -0.00529   1.94974
    A8        1.89917   0.00139   0.00085  -0.00473  -0.00403   1.89514
    A9        1.90395   0.00187   0.00376   0.01012   0.01377   1.91772
   A10        1.90850   0.00385   0.00651   0.01319   0.01957   1.92808
   A11        1.89704   0.00067  -0.00042   0.00839   0.00784   1.90487
   A12        1.89945  -0.00302  -0.00677  -0.02632  -0.03299   1.86646
   A13        1.95171  -0.00556  -0.00632  -0.01176  -0.01732   1.93439
   A14        1.91396   0.00503   0.00984   0.00755   0.01704   1.93100
   A15        1.89386  -0.00029  -0.00231   0.01355   0.01113   1.90499
   A16        1.90492   0.00191   0.00439   0.01630   0.02056   1.92548
   A17        1.89923   0.00184   0.00097  -0.00441  -0.00367   1.89556
   A18        1.89942  -0.00295  -0.00678  -0.02194  -0.02856   1.87086
   A19        1.95118  -0.00550  -0.00555  -0.00794  -0.01293   1.93825
   A20        1.90423   0.00367   0.00367   0.00083   0.00424   1.90847
   A21        1.90155   0.00069   0.00206   0.01729   0.01937   1.92092
   A22        1.89521  -0.00012  -0.00174   0.01634   0.01466   1.90987
   A23        1.91184   0.00426   0.00829  -0.00471   0.00331   1.91514
   A24        1.89919  -0.00299  -0.00692  -0.02249  -0.02930   1.86989
   A25        1.97695   0.00607   0.00914   0.01174   0.02055   1.99750
   A26        1.90864   0.00244   0.00658   0.02911   0.03484   1.94349
   A27        1.91529   0.00455   0.01061   0.03144   0.04189   1.95718
   A28        1.88410  -0.00537  -0.00825  -0.00557  -0.01445   1.86965
   A29        1.87594  -0.00686  -0.01317  -0.07250  -0.08577   1.79017
   A30        1.90132  -0.00134  -0.00564   0.00367  -0.00441   1.89691
   A31        1.97902   0.00467   0.01019  -0.01604  -0.00700   1.97202
    D1       -0.50385  -0.00019   0.00263  -0.03492  -0.03256  -0.53641
    D2       -2.61601  -0.00290  -0.00348  -0.04724  -0.05099  -2.66700
    D3        1.59717  -0.00115   0.00202  -0.01862  -0.01680   1.58037
    D4        1.60013   0.00203   0.00392   0.00528   0.00882   1.60896
    D5       -0.51203  -0.00068  -0.00219  -0.00705  -0.00960  -0.52164
    D6       -2.58204   0.00108   0.00330   0.02157   0.02459  -2.55745
    D7       -2.59895   0.00434   0.00672   0.04923   0.05648  -2.54248
    D8        1.57207   0.00163   0.00061   0.03690   0.03805   1.61012
    D9       -0.49794   0.00339   0.00610   0.06552   0.07224  -0.42570
   D10        1.06195   0.00345  -0.00081   0.04659   0.04506   1.10702
   D11       -1.05289  -0.00160  -0.00869  -0.00125  -0.00964  -1.06253
   D12       -3.10283   0.00573   0.00919   0.02351   0.03262  -3.07022
   D13       -0.50325   0.00023   0.00407   0.01560   0.01970  -0.48355
   D14       -2.61882  -0.00196  -0.00406  -0.00240  -0.00642  -2.62524
   D15        1.59172  -0.00112  -0.00023   0.01175   0.01166   1.60337
   D16        1.60351   0.00149   0.00690   0.01757   0.02448   1.62800
   D17       -0.51206  -0.00069  -0.00123  -0.00043  -0.00164  -0.51369
   D18       -2.58470   0.00014   0.00261   0.01372   0.01644  -2.56826
   D19       -2.60828   0.00046   0.00226  -0.00167   0.00052  -2.60776
   D20        1.55933  -0.00172  -0.00587  -0.01967  -0.02560   1.53373
   D21       -0.51331  -0.00089  -0.00204  -0.00552  -0.00752  -0.52083
   D22        1.03714  -0.00596  -0.01582  -0.01761  -0.03304   1.00411
   D23       -1.05932  -0.00476  -0.01258  -0.03355  -0.04592  -1.10524
   D24       -3.13056  -0.00369  -0.00757  -0.01695  -0.02424   3.12839
   D25       -3.12525  -0.00196  -0.00453  -0.00464  -0.00894  -3.13419
   D26        1.06147  -0.00076  -0.00130  -0.02058  -0.02183   1.03964
   D27       -1.00976   0.00032   0.00371  -0.00399  -0.00015  -1.00991
   D28       -1.05468  -0.00334  -0.00960  -0.02425  -0.03379  -1.08847
   D29        3.13204  -0.00215  -0.00637  -0.04019  -0.04667   3.08537
   D30        1.06081  -0.00107  -0.00135  -0.02360  -0.02499   1.03582
   D31       -0.50750  -0.00209   0.00042   0.01625   0.01713  -0.49037
   D32       -2.60964  -0.00098   0.00037  -0.00494  -0.00426  -2.61390
   D33        1.58892  -0.00359  -0.00297  -0.04624  -0.04951   1.53941
   D34        1.59424  -0.00103   0.00035   0.02313   0.02391   1.61815
   D35       -0.50790   0.00007   0.00031   0.00194   0.00253  -0.50537
   D36       -2.59252  -0.00254  -0.00303  -0.03936  -0.04273  -2.63525
   D37       -2.61702  -0.00226  -0.00421   0.00286  -0.00101  -2.61803
   D38        1.56402  -0.00115  -0.00426  -0.01833  -0.02239   1.54163
   D39       -0.52060  -0.00376  -0.00760  -0.05963  -0.06765  -0.58825
   D40       -0.51069  -0.00123  -0.00043  -0.03670  -0.03688  -0.54757
   D41        1.60533   0.00199   0.00800   0.00367   0.01060   1.61593
   D42       -2.62939  -0.00601  -0.01050  -0.03321  -0.04227  -2.67165
         Item               Value     Threshold  Converged?
 Maximum Force            0.050456     0.000450     NO 
 RMS     Force            0.011215     0.000300     NO 
 Maximum Displacement     0.205488     0.001800     NO 
 RMS     Displacement     0.051936     0.001200     NO 
 Predicted change in Energy=-8.501341D-03
 GradGradGradGradGradGradGradGradGradGradGradGradGradGradGradGradGradGrad

                          Input orientation:                          
 ---------------------------------------------------------------------
 Center     Atomic      Atomic             Coordinates (Angstroms)
 Number     Number       Type             X           Y           Z
 ---------------------------------------------------------------------
      1          6           0        1.321156   -0.066596   -0.355998
      2          6           0        0.745439    1.289792    0.008865
      3          6           0       -0.726060    1.198597    0.357900
      4          6           0       -1.377285    0.036161   -0.357054
      5          6           0       -0.683560   -1.270706   -0.017511
      6          8           0        0.688721   -1.137183    0.318626
      7          1           0       -1.329294    0.207753   -1.468412
      8          1           0       -2.463615   -0.027690   -0.078626
      9          1           0       -0.746159   -2.002876   -0.872436
     10          1           0       -1.114461   -1.752427    0.901068
     11          1           0        1.263798   -0.251822   -1.467974
     12          1           0        2.387856   -0.173619   -0.025742
     13          1           0        0.901472    1.989618   -0.856500
     14          1           0        1.305872    1.720272    0.883554
     15          1           0       -1.253361    2.157572    0.104187
     16          1           0       -0.833418    1.043354    1.468053
 ---------------------------------------------------------------------
                    Distance matrix (angstroms):
                    1          2          3          4          5
     1  C    0.000000
     2  C    1.518013   0.000000
     3  C    2.510271   1.515075   0.000000
     4  C    2.700398   2.492277   1.512121   0.000000
     5  C    2.362910   2.932386   2.498039   1.518041   0.000000
     6  O    1.414656   2.447321   2.731120   2.470155   1.419145
     7  H    2.887494   2.767250   2.163579   1.125550   2.169776
     8  H    3.795120   3.470078   2.171044   1.123259   2.171962
     9  H    2.879181   3.720648   3.429805   2.195817   1.127337
    10  H    3.217837   3.675643   3.025629   2.202498   1.123173
    11  H    1.128755   2.196889   3.065463   2.879653   2.633282
    12  H    1.121772   2.200069   3.424417   3.785507   3.261482
    13  H    2.157464   1.123814   2.179298   3.042725   3.721014
    14  H    2.174769   1.124491   2.162685   3.402157   3.703472
    15  H    3.433196   2.181130   1.123410   2.174508   3.477439
    16  H    3.033371   2.163966   1.126084   2.154354   2.753948
                    6          7          8          9         10
     6  O    0.000000
     7  H    3.012432   0.000000
     8  H    3.365413   1.809315   0.000000
     9  H    2.055951   2.362650   2.735169   0.000000
    10  H    1.992292   3.082676   2.398902   1.828576   0.000000
    11  H    2.075215   2.633503   3.984235   2.731444   3.676995
    12  H    1.983458   4.005490   4.853953   3.726274   3.951941
    13  H    3.347099   2.919896   3.999803   4.319137   4.599557
    14  H    2.977427   3.842337   4.264996   4.599583   4.232960
    15  H    3.830546   2.506118   2.504697   4.303531   3.992795
    16  H    2.897038   3.093048   2.489356   3.842528   2.866504
                   11         12         13         14         15
    11  H    0.000000
    12  H    1.830206   0.000000
    13  H    2.351431   2.753015   0.000000
    14  H    3.069301   2.363119   1.806620   0.000000
    15  H    3.822690   4.325482   2.365256   2.710778   0.000000
    16  H    3.833542   3.753538   3.051033   2.318710   1.810515
                   16
    16  H    0.000000
 Stoichiometry    C5H10O
 Framework group  C1[X(C5H10O)]
 Deg. of freedom    42
 Full point group                 C1      NOp   1
 Largest Abelian subgroup         C1      NOp   1
 Largest concise Abelian subgroup C1      NOp   1
                         Standard orientation:                         
 ---------------------------------------------------------------------
 Center     Atomic      Atomic             Coordinates (Angstroms)
 Number     Number       Type             X           Y           Z
 ---------------------------------------------------------------------
      1          6           0       -0.577049   -1.214501    0.308114
      2          6           0       -1.480175   -0.032264    0.006380
      3          6           0       -0.682275    1.213320   -0.321228
      4          6           0        0.668096    1.181167    0.358458
      5          6           0        1.451695   -0.055263   -0.043614
      6          8           0        0.648430   -1.170472   -0.397233
      7          1           0        0.523922    1.186437    1.474724
      8          1           0        1.253591    2.103135    0.096004
      9          1           0        2.140782   -0.391302    0.782900
     10          1           0        2.059624    0.112590   -0.973003
     11          1           0       -0.359110   -1.293836    1.412784
     12          1           0       -1.020065   -2.183095   -0.043929
     13          1           0       -2.143040    0.148214    0.895759
     14          1           0       -2.153847   -0.277100   -0.860050
     15          1           0       -1.248136    2.136311   -0.021329
     16          1           0       -0.522917    1.267670   -1.434653
 ---------------------------------------------------------------------
 Rotational constants (GHZ):      4.6975692      4.4631616      2.6714852
 Standard basis: VSTO-6G (5D, 7F)
 There are    34 symmetry adapted basis functions of A   symmetry.
 Integral buffers will be    131072 words long.
 Regular integral format.
 Two-electron integral symmetry is turned off.
    34 basis functions,   204 primitive gaussians,    34 cartesian basis functions
    18 alpha electrons       18 beta electrons
       nuclear repulsion energy       167.2764612874 Hartrees.
 Do NDO integrals.
 One-electron integrals computed using PRISM.
 NBasis=    34 RedAO= F  NBF=    34
 NBsUse=    34 1.00D-04 NBFU=    34
 Initial guess read from the read-write file.
 B after Tr=     0.000000    0.000000    0.000000
         Rot=    1.000000    0.000000    0.000000    0.000000 Ang=   0.00 deg.
 Initial guess orbital symmetries:
       Occupied  (A) (A) (A) (A) (A) (A) (A) (A) (A) (A) (A) (A)
                 (A) (A) (A) (A) (A) (A)
       Virtual   (A) (A) (A) (A) (A) (A) (A) (A) (A) (A) (A) (A)
                 (A) (A) (A) (A)
 Requested convergence on RMS density matrix=1.00D-08 within 128 cycles.
 Requested convergence on MAX density matrix=1.00D-06.
 Requested convergence on             energy=1.00D-06.
 No special actions if energy rises.
 Overlap will be assumed to be unity.
 Keep J ints in memory in canonical form, NReq=883512.
 SCF Done:  E(RAM1) = -0.101912696231     A.U. after   12 cycles
             Convg  =    0.7882D-08             -V/T =  0.9956
 Calling FoFJK, ICntrl=      2127 FMM=F ISym2X=0 I1Cent= 0 IOpClX= 0 NMat=1 NMatS=1 NMatT=0.
 ***** Axes restored to original set *****
 -------------------------------------------------------------------
 Center     Atomic                   Forces (Hartrees/Bohr)
 Number     Number              X              Y              Z
 -------------------------------------------------------------------
      1        6           0.007887656   -0.001386045   -0.004859304
      2        6           0.001597257    0.003785059   -0.000220278
      3        6          -0.000951173    0.000437209    0.003151619
      4        6          -0.002129553   -0.000263778   -0.003076214
      5        6          -0.004664017   -0.008105631    0.000739666
      6        8          -0.000393099    0.001040972    0.002364150
      7        1           0.000032699   -0.000389944    0.002309797
      8        1           0.002334058   -0.000672795   -0.000096620
      9        1          -0.002137139    0.002765391    0.000091934
     10        1          -0.004139466    0.000490270    0.000261481
     11        1          -0.000475065    0.002801491    0.002446063
     12        1           0.002950764    0.003476631   -0.000436040
     13        1          -0.000817077   -0.001179910    0.001342637
     14        1          -0.000965653   -0.001182677   -0.001733280
     15        1           0.001739696   -0.002230790   -0.000307795
     16        1           0.000130113    0.000614547   -0.001977815
 -------------------------------------------------------------------
 Cartesian Forces:  Max     0.008105631 RMS     0.002591288

 GradGradGradGradGradGradGradGradGradGradGradGradGradGradGradGradGradGrad
 Berny optimization.
 Using GEDIIS/GDIIS optimizer.
 Internal  Forces:  Max     0.009036544 RMS     0.002107318
 Search for a local minimum.
 Step number   3 out of a maximum of   99
 All quantities printed in internal units (Hartrees-Bohrs-Radians)
 Mixed Optimization -- RFO/linear search
 Update second derivatives using D2CorX and points    1    2    3
 DE= -1.03D-02 DEPred=-8.50D-03 R= 1.21D+00
 SS=  1.41D+00  RLast= 3.22D-01 DXNew= 8.4853D-01 9.6682D-01
 Trust test= 1.21D+00 RLast= 3.22D-01 DXMaxT set to 8.49D-01
 ITU=  1  1  0
 Use linear search instead of GDIIS.
     Eigenvalues ---    0.02023   0.02170   0.02484   0.03948   0.04183
     Eigenvalues ---    0.05230   0.05497   0.05891   0.06146   0.06272
     Eigenvalues ---    0.06598   0.06827   0.07043   0.08436   0.08912
     Eigenvalues ---    0.08929   0.09033   0.10192   0.11702   0.12185
     Eigenvalues ---    0.12638   0.12762   0.13671   0.19197   0.20591
     Eigenvalues ---    0.22683   0.33750   0.34126   0.34127   0.34128
     Eigenvalues ---    0.34128   0.34129   0.34130   0.34131   0.34147
     Eigenvalues ---    0.34918   0.40322   0.41458   0.43207   0.45576
     Eigenvalues ---    0.46417   0.57395
 RFO step:  Lambda=-1.32762770D-03 EMin= 2.02264540D-02
 Quartic linear search produced a step of -0.10647.
 Iteration  1 RMS(Cart)=  0.01581961 RMS(Int)=  0.00016260
 Iteration  2 RMS(Cart)=  0.00013818 RMS(Int)=  0.00007580
 Iteration  3 RMS(Cart)=  0.00000002 RMS(Int)=  0.00007580
 Variable       Old X    -DE/DX   Delta X   Delta X   Delta X     New X
                                 (Linear)    (Quad)   (Total)
    R1        2.86863  -0.00010  -0.00875   0.01222   0.00349   2.87212
    R2        2.67331   0.00847   0.00176   0.01722   0.01902   2.69233
    R3        2.13304  -0.00285  -0.00346  -0.00319  -0.00665   2.12639
    R4        2.11984   0.00235  -0.00264   0.00959   0.00695   2.12679
    R5        2.86308   0.00127  -0.00893   0.01303   0.00407   2.86715
    R6        2.12370  -0.00188  -0.00247  -0.00191  -0.00437   2.11933
    R7        2.12498  -0.00228  -0.00261  -0.00279  -0.00539   2.11958
    R8        2.85749   0.00144  -0.00853   0.01323   0.00467   2.86216
    R9        2.12294  -0.00265  -0.00239  -0.00405  -0.00644   2.11650
   R10        2.12799  -0.00205  -0.00283  -0.00188  -0.00471   2.12328
   R11        2.86868  -0.00106  -0.00899   0.00812  -0.00089   2.86779
   R12        2.12698  -0.00234  -0.00271  -0.00281  -0.00552   2.12146
   R13        2.12265  -0.00224  -0.00238  -0.00297  -0.00536   2.11730
   R14        2.68180   0.00904   0.00105   0.01717   0.01824   2.70004
   R15        2.13036  -0.00175  -0.00332  -0.00044  -0.00376   2.12660
   R16        2.12249   0.00159  -0.00281   0.00780   0.00499   2.12747
    A1        1.97364  -0.00414  -0.00006  -0.01268  -0.01271   1.96093
    A2        1.94350  -0.00147  -0.00384  -0.01529  -0.01917   1.92433
    A3        1.95533  -0.00165  -0.00408  -0.00866  -0.01267   1.94266
    A4        1.89958   0.00222  -0.00120   0.01062   0.00920   1.90877
    A5        1.78494   0.00497   0.00970   0.02535   0.03498   1.81992
    A6        1.89937   0.00077   0.00014   0.00474   0.00466   1.90403
    A7        1.94974   0.00092   0.00056   0.00082   0.00139   1.95113
    A8        1.89514  -0.00058   0.00043   0.00087   0.00131   1.89645
    A9        1.91772   0.00003  -0.00147  -0.00098  -0.00245   1.91527
   A10        1.92808  -0.00022  -0.00208  -0.00048  -0.00258   1.92550
   A11        1.90487  -0.00048  -0.00083   0.00087   0.00005   1.90492
   A12        1.86646   0.00031   0.00351  -0.00122   0.00229   1.86876
   A13        1.93439   0.00330   0.00184   0.00677   0.00854   1.94292
   A14        1.93100  -0.00212  -0.00181  -0.00840  -0.01017   1.92083
   A15        1.90499  -0.00015  -0.00119   0.00371   0.00249   1.90748
   A16        1.92548  -0.00056  -0.00219  -0.00389  -0.00606   1.91942
   A17        1.89556  -0.00124   0.00039   0.00295   0.00332   1.89888
   A18        1.87086   0.00070   0.00304  -0.00111   0.00194   1.87280
   A19        1.93825   0.00055   0.00138  -0.00169  -0.00033   1.93792
   A20        1.90847  -0.00040  -0.00045   0.00195   0.00150   1.90997
   A21        1.92092   0.00043  -0.00206   0.00397   0.00190   1.92282
   A22        1.90987   0.00052  -0.00156   0.00317   0.00161   1.91147
   A23        1.91514  -0.00140  -0.00035  -0.00712  -0.00746   1.90768
   A24        1.86989   0.00029   0.00312  -0.00019   0.00292   1.87281
   A25        1.99750  -0.00401  -0.00219  -0.01386  -0.01604   1.98147
   A26        1.94349  -0.00176  -0.00371  -0.01595  -0.01968   1.92380
   A27        1.95718  -0.00199  -0.00446  -0.00972  -0.01414   1.94304
   A28        1.86965   0.00342   0.00154   0.01581   0.01718   1.88683
   A29        1.79017   0.00416   0.00913   0.02301   0.03206   1.82223
   A30        1.89691   0.00097   0.00047   0.00523   0.00545   1.90236
   A31        1.97202   0.00434   0.00074   0.02262   0.02347   1.99550
    D1       -0.53641   0.00160   0.00347   0.01327   0.01668  -0.51973
    D2       -2.66700   0.00168   0.00543   0.01275   0.01812  -2.64888
    D3        1.58037   0.00163   0.00179   0.01425   0.01598   1.59635
    D4        1.60896   0.00032  -0.00094   0.00622   0.00532   1.61428
    D5       -0.52164   0.00041   0.00102   0.00570   0.00676  -0.51487
    D6       -2.55745   0.00035  -0.00262   0.00720   0.00463  -2.55282
    D7       -2.54248  -0.00092  -0.00601  -0.00490  -0.01092  -2.55340
    D8        1.61012  -0.00084  -0.00405  -0.00542  -0.00948   1.60064
    D9       -0.42570  -0.00090  -0.00769  -0.00392  -0.01161  -0.43731
   D10        1.10702  -0.00093  -0.00480  -0.00525  -0.00997   1.09705
   D11       -1.06253   0.00224   0.00103   0.01552   0.01678  -1.04575
   D12       -3.07022  -0.00189  -0.00347  -0.00620  -0.00994  -3.08015
   D13       -0.48355   0.00055  -0.00210  -0.00493  -0.00706  -0.49061
   D14       -2.62524   0.00046   0.00068   0.00118   0.00185  -2.62339
   D15        1.60337   0.00095  -0.00124   0.00523   0.00398   1.60735
   D16        1.62800   0.00027  -0.00261  -0.00360  -0.00623   1.62177
   D17       -0.51369   0.00018   0.00017   0.00251   0.00268  -0.51101
   D18       -2.56826   0.00067  -0.00175   0.00656   0.00481  -2.56345
   D19       -2.60776   0.00023  -0.00006  -0.00484  -0.00492  -2.61268
   D20        1.53373   0.00014   0.00273   0.00127   0.00400   1.53773
   D21       -0.52083   0.00064   0.00080   0.00532   0.00613  -0.51471
   D22        1.00411   0.00165   0.00352   0.00980   0.01331   1.01741
   D23       -1.10524   0.00091   0.00489   0.00563   0.01053  -1.09471
   D24        3.12839   0.00055   0.00258   0.00238   0.00496   3.13335
   D25       -3.13419   0.00083   0.00095   0.00108   0.00201  -3.13218
   D26        1.03964   0.00009   0.00232  -0.00309  -0.00077   1.03888
   D27       -1.00991  -0.00027   0.00002  -0.00634  -0.00633  -1.01624
   D28       -1.08847   0.00062   0.00360  -0.00074   0.00284  -1.08562
   D29        3.08537  -0.00012   0.00497  -0.00490   0.00006   3.08543
   D30        1.03582  -0.00048   0.00266  -0.00815  -0.00550   1.03031
   D31       -0.49037  -0.00027  -0.00182  -0.00746  -0.00925  -0.49963
   D32       -2.61390  -0.00047   0.00045  -0.00578  -0.00535  -2.61925
   D33        1.53941   0.00097   0.00527   0.00596   0.01124   1.55065
   D34        1.61815  -0.00007  -0.00255  -0.00401  -0.00653   1.61162
   D35       -0.50537  -0.00027  -0.00027  -0.00234  -0.00263  -0.50801
   D36       -2.63525   0.00117   0.00455   0.00941   0.01395  -2.62130
   D37       -2.61803  -0.00024   0.00011  -0.00653  -0.00640  -2.62443
   D38        1.54163  -0.00043   0.00238  -0.00485  -0.00250   1.53913
   D39       -0.58825   0.00101   0.00720   0.00689   0.01409  -0.57416
   D40       -0.54757   0.00019   0.00393   0.00258   0.00652  -0.54105
   D41        1.61593  -0.00221  -0.00113  -0.01545  -0.01681   1.59912
   D42       -2.67165   0.00201   0.00450   0.00655   0.01130  -2.66035
         Item               Value     Threshold  Converged?
 Maximum Force            0.009037     0.000450     NO 
 RMS     Force            0.002107     0.000300     NO 
 Maximum Displacement     0.073606     0.001800     NO 
 RMS     Displacement     0.015796     0.001200     NO 
 Predicted change in Energy=-7.856531D-04
 GradGradGradGradGradGradGradGradGradGradGradGradGradGradGradGradGradGrad

                          Input orientation:                          
 ---------------------------------------------------------------------
 Center     Atomic      Atomic             Coordinates (Angstroms)
 Number     Number       Type             X           Y           Z
 ---------------------------------------------------------------------
      1          6           0        1.339271   -0.063332   -0.355846
      2          6           0        0.751943    1.290391    0.008099
      3          6           0       -0.720685    1.189487    0.359058
      4          6           0       -1.379101    0.028409   -0.356743
      5          6           0       -0.696519   -1.282208   -0.011239
      6          8           0        0.686297   -1.135916    0.317221
      7          1           0       -1.329127    0.196449   -1.465599
      8          1           0       -2.462418   -0.033348   -0.077525
      9          1           0       -0.777153   -2.001790   -0.872694
     10          1           0       -1.153411   -1.753108    0.903612
     11          1           0        1.278593   -0.228240   -1.467278
     12          1           0        2.413424   -0.144078   -0.029799
     13          1           0        0.899337    1.989568   -0.856303
     14          1           0        1.309117    1.722932    0.880185
     15          1           0       -1.243747    2.145220    0.099472
     16          1           0       -0.828719    1.039763    1.467377
 ---------------------------------------------------------------------
                    Distance matrix (angstroms):
                    1          2          3          4          5
     1  C    0.000000
     2  C    1.519861   0.000000
     3  C    2.514769   1.517230   0.000000
     4  C    2.719920   2.503409   1.514591   0.000000
     5  C    2.397676   2.952403   2.499397   1.517568   0.000000
     6  O    1.424721   2.446800   2.718244   2.464903   1.428799
     7  H    2.901617   2.774769   2.164647   1.122629   2.168360
     8  H    3.811981   3.477317   2.172456   1.120425   2.163896
     9  H    2.916162   3.735289   3.421207   2.179509   1.125346
    10  H    3.264206   3.700703   3.023683   2.193908   1.125811
    11  H    1.125236   2.181820   3.056562   2.891799   2.670574
    12  H    1.125448   2.195372   3.428156   3.810498   3.311711
    13  H    2.158333   1.121501   2.177545   3.047455   3.737032
    14  H    2.172423   1.121636   2.162460   3.409973   3.721301
    15  H    3.428848   2.172984   1.120002   2.169641   3.472605
    16  H    3.039925   2.165825   1.123592   2.157121   2.755964
                    6          7          8          9         10
     6  O    0.000000
     7  H    3.002594   0.000000
     8  H    3.359447   1.806629   0.000000
     9  H    2.075409   2.342747   2.710568   0.000000
    10  H    2.027143   3.073241   2.373542   1.832670   0.000000
    11  H    2.087852   2.642076   3.995568   2.779407   3.723035
    12  H    2.021667   4.022955   4.877334   3.786998   4.022754
    13  H    3.345324   2.924477   4.000010   4.329183   4.617218
    14  H    2.979571   3.846190   4.269216   4.615047   4.259982
    15  H    3.812917   2.500889   2.502528   4.284917   3.981428
    16  H    2.889933   3.092561   2.491438   3.837921   2.867644
                   11         12         13         14         15
    11  H    0.000000
    12  H    1.833377   0.000000
    13  H    2.331480   2.743723   0.000000
    14  H    3.052636   2.352294   1.803997   0.000000
    15  H    3.801345   4.316538   2.351710   2.702768   0.000000
    16  H    3.828942   3.762248   3.047589   2.319884   1.807055
                   16
    16  H    0.000000
 Stoichiometry    C5H10O
 Framework group  C1[X(C5H10O)]
 Deg. of freedom    42
 Full point group                 C1      NOp   1
 Largest Abelian subgroup         C1      NOp   1
 Largest concise Abelian subgroup C1      NOp   1
                         Standard orientation:                         
 ---------------------------------------------------------------------
 Center     Atomic      Atomic             Coordinates (Angstroms)
 Number     Number       Type             X           Y           Z
 ---------------------------------------------------------------------
      1          6           0       -0.757993   -1.131381    0.305056
      2          6           0       -1.475520    0.174161    0.003903
      3          6           0       -0.500891    1.290338   -0.322037
      4          6           0        0.832975    1.073962    0.362044
      5          6           0        1.445350   -0.253308   -0.045831
      6          8           0        0.477555   -1.244644   -0.395247
      7          1           0        0.689498    1.094542    1.475277
      8          1           0        1.539707    1.903489    0.101721
      9          1           0        2.079180   -0.662335    0.789250
     10          1           0        2.080803   -0.144664   -0.968787
     11          1           0       -0.570451   -1.226856    1.410438
     12          1           0       -1.357343   -2.017492   -0.044543
     13          1           0       -2.102983    0.451653    0.891063
     14          1           0       -2.174196    0.031418   -0.861859
     15          1           0       -0.931825    2.277930   -0.016484
     16          1           0       -0.336357    1.326834   -1.432917
 ---------------------------------------------------------------------
 Rotational constants (GHZ):      4.6682229      4.4501412      2.6567431
 Standard basis: VSTO-6G (5D, 7F)
 There are    34 symmetry adapted basis functions of A   symmetry.
 Integral buffers will be    131072 words long.
 Regular integral format.
 Two-electron integral symmetry is turned off.
    34 basis functions,   204 primitive gaussians,    34 cartesian basis functions
    18 alpha electrons       18 beta electrons
       nuclear repulsion energy       167.0508226848 Hartrees.
 Do NDO integrals.
 One-electron integrals computed using PRISM.
 NBasis=    34 RedAO= F  NBF=    34
 NBsUse=    34 1.00D-04 NBFU=    34
 Initial guess read from the read-write file.
 B after Tr=     0.000000    0.000000    0.000000
         Rot=    1.000000    0.000000    0.000000    0.000000 Ang=   0.00 deg.
 Initial guess orbital symmetries:
       Occupied  (A) (A) (A) (A) (A) (A) (A) (A) (A) (A) (A) (A)
                 (A) (A) (A) (A) (A) (A)
       Virtual   (A) (A) (A) (A) (A) (A) (A) (A) (A) (A) (A) (A)
                 (A) (A) (A) (A)
 Requested convergence on RMS density matrix=1.00D-08 within 128 cycles.
 Requested convergence on MAX density matrix=1.00D-06.
 Requested convergence on             energy=1.00D-06.
 No special actions if energy rises.
 Overlap will be assumed to be unity.
 Keep J ints in memory in canonical form, NReq=883512.
 SCF Done:  E(RAM1) = -0.102406268746     A.U. after   12 cycles
             Convg  =    0.6166D-08             -V/T =  0.9956
 Calling FoFJK, ICntrl=      2127 FMM=F ISym2X=0 I1Cent= 0 IOpClX= 0 NMat=1 NMatS=1 NMatT=0.
 ***** Axes restored to original set *****
 -------------------------------------------------------------------
 Center     Atomic                   Forces (Hartrees/Bohr)
 Number     Number              X              Y              Z
 -------------------------------------------------------------------
      1        6          -0.002581609   -0.003251349   -0.000667195
      2        6          -0.000573327    0.000945644    0.000520935
      3        6           0.000122674   -0.000732412    0.000678055
      4        6           0.000129387    0.001478360   -0.000515827
      5        6           0.003722963    0.000058807   -0.000565170
      6        8          -0.000682757    0.000711999   -0.000924124
      7        1           0.000187051    0.000157422    0.000718626
      8        1           0.000328307    0.000186496    0.000176166
      9        1           0.000724874    0.000876947    0.001084067
     10        1           0.002023547    0.001177269   -0.001042106
     11        1          -0.000206732   -0.000150240    0.001442663
     12        1          -0.002704586   -0.000777688    0.000410385
     13        1          -0.000495516   -0.000293303    0.000268588
     14        1          -0.000356008   -0.000277988   -0.000325541
     15        1           0.000189644   -0.000110632   -0.000412072
     16        1           0.000172088    0.000000666   -0.000847451
 -------------------------------------------------------------------
 Cartesian Forces:  Max     0.003722963 RMS     0.001121436

 GradGradGradGradGradGradGradGradGradGradGradGradGradGradGradGradGradGrad
 Berny optimization.
 Using GEDIIS/GDIIS optimizer.
 Internal  Forces:  Max     0.005423918 RMS     0.001129772
 Search for a local minimum.
 Step number   4 out of a maximum of   99
 All quantities printed in internal units (Hartrees-Bohrs-Radians)
 Mixed Optimization -- RFO/linear search
 Update second derivatives using D2CorX and points    1    2    3    4
 DE= -4.94D-04 DEPred=-7.86D-04 R= 6.28D-01
 SS=  1.41D+00  RLast= 9.86D-02 DXNew= 1.4270D+00 2.9578D-01
 Trust test= 6.28D-01 RLast= 9.86D-02 DXMaxT set to 8.49D-01
 ITU=  1  1  1  0
 Use linear search instead of GDIIS.
     Eigenvalues ---    0.02021   0.02169   0.02478   0.03970   0.04153
     Eigenvalues ---    0.05228   0.05498   0.05989   0.06147   0.06303
     Eigenvalues ---    0.06644   0.06957   0.07196   0.08465   0.08935
     Eigenvalues ---    0.08968   0.09037   0.10223   0.11673   0.11996
     Eigenvalues ---    0.12369   0.12630   0.13604   0.19466   0.20748
     Eigenvalues ---    0.24819   0.33481   0.34126   0.34127   0.34128
     Eigenvalues ---    0.34128   0.34129   0.34130   0.34131   0.34199
     Eigenvalues ---    0.34741   0.40458   0.41796   0.43625   0.45572
     Eigenvalues ---    0.52197   0.64773
 RFO step:  Lambda=-8.41580279D-05 EMin= 2.02083804D-02
 Quartic linear search produced a step of -0.27408.
[...]
 ! D17   D(13,2,3,15)          -32.1183         -DE/DX =    0.0                 !
 ! D18   D(13,2,3,16)         -150.0289         -DE/DX =    0.0                 !
 ! D19   D(14,2,3,4)          -152.7621         -DE/DX =    0.0                 !
 ! D20   D(14,2,3,15)           85.4147         -DE/DX =    0.0                 !
 ! D21   D(14,2,3,16)          -32.4959         -DE/DX =    0.0                 !
 ! D22   D(2,3,4,5)             58.3309         -DE/DX =    0.0                 !
 ! D23   D(2,3,4,7)            -62.6567         -DE/DX =    0.0                 !
 ! D24   D(2,3,4,8)            179.5253         -DE/DX =    0.0                 !
 ! D25   D(15,3,4,5)          -179.8458         -DE/DX =    0.0                 !
 ! D26   D(15,3,4,7)            59.1666         -DE/DX =    0.0                 !
 ! D27   D(15,3,4,8)           -58.6514         -DE/DX =    0.0                 !
 ! D28   D(16,3,4,5)           -62.1846         -DE/DX =    0.0                 !
 ! D29   D(16,3,4,7)           176.8278         -DE/DX =    0.0                 !
 ! D30   D(16,3,4,8)            59.0098         -DE/DX =    0.0                 !
 ! D31   D(3,4,5,6)            -25.2414         -DE/DX =    0.0                 !
 ! D32   D(3,4,5,9)           -146.9438         -DE/DX =    0.0                 !
 ! D33   D(3,4,5,10)            91.5035         -DE/DX =    0.0                 !
 ! D34   D(7,4,5,6)             95.6006         -DE/DX =    0.0                 !
 ! D35   D(7,4,5,9)            -26.1018         -DE/DX =    0.0                 !
 ! D36   D(7,4,5,10)          -147.6545         -DE/DX =    0.0                 !
 ! D37   D(8,4,5,6)           -146.8847         -DE/DX =    0.0                 !
 ! D38   D(8,4,5,9)             91.413          -DE/DX =    0.0                 !
 ! D39   D(8,4,5,10)           -30.1398         -DE/DX =    0.0                 !
 ! D40   D(4,5,6,1)            -34.8646         -DE/DX =    0.0                 !
 ! D41   D(9,5,6,1)             87.9866         -DE/DX =    0.0                 !
 ! D42   D(10,5,6,1)          -155.9076         -DE/DX =    0.0                 !
 --------------------------------------------------------------------------------
 GradGradGradGradGradGradGradGradGradGradGradGradGradGradGradGradGradGrad

 1\1\GINC-RR56\Freq\RAM1\ZDO\C5H10O1\HMAYES\13-Jun-2012\0\\#N Geom=AllC
 heck Guess=TCheck SCRF=Check GenChk RAM1/ZDO Freq\\from http://6ring.b
 io.nrc.ca/suppl.html\\0,1\C,1.3390569391,-0.0732147486,-0.3337786061\C
 ,0.7466707248,1.2914324199,-0.0132027823\C,-0.7163461482,1.189382832,0
 .3702080276\C,-1.3855599039,0.0369606713,-0.3468734207\C,-0.6929862687
 ,-1.2783304845,-0.0306257251\O,0.672297121,-1.1276580216,0.3467350323\
 H,-1.3555982714,0.2206527709,-1.4527634221\H,-2.4623544317,-0.02972478
 89,-0.0463427421\H,-0.7384260672,-1.9658179161,-0.9177024525\H,-1.1621
 100662,-1.7836570968,0.8560931235\H,1.3057616013,-0.2635538014,-1.4400
 449108\H,2.3992357071,-0.1511662606,0.0272667813\H,0.8643754758,1.9547
 877959,-0.9089033385\H,1.3164134961,1.7640443265,0.8279690897\H,-1.242
 500932,2.1477026982,0.1266279502\H,-0.8008289759,1.0283596037,1.477337
 3954\\Version=EM64L-G09RevB.01\State=1-A\HF=-0.1025535\RMSD=8.112e-10\
 RMSF=2.589e-06\ZeroPoint=0.1480977\Thermal=0.1538297\Dipole=-0.2885295
 ,0.413338,-0.3442614\DipoleDeriv=0.1527506,0.0969576,-0.0950845,0.1085
 521,0.5517108,-0.0688974,-0.1735234,-0.0559172,0.2571865,-0.0826268,0.
 0066221,-0.0271965,-0.0258745,-0.1111636,0.0116773,0.0043318,-0.030211
 6,-0.1067314,0.0217265,0.044946,0.0139637,0.050388,-0.0460962,-0.00680
 18,-0.0013619,0.0386435,-0.0425957,-0.1334313,-0.0171057,-0.0204174,0.
 0106711,-0.0741086,-0.0080158,0.0117991,-0.0101281,-0.0865605,0.525001
 7,0.0765775,0.0999362,-0.0291158,0.2392349,0.0886942,0.1070919,0.14109
 45,0.1822258,-0.6403837,-0.2039867,0.0048553,-0.0900242,-0.6391387,0.0
 379789,0.0401562,-0.0493194,-0.419537,0.0333011,0.0054405,-0.0021073,0
 .0020057,0.0084669,-0.0079598,0.0084326,-0.0019268,0.0209995,0.0372559
 ,-0.000754,-0.0014465,-0.0015785,0.0242447,0.0038823,-0.0147119,0.0014
 424,0.0385221,-0.030283,0.0156951,0.0068869,0.0065549,-0.0232306,0.009
 1374,-0.0072505,-0.000676,-0.0217458,-0.0120153,-0.0225047,0.0031232,0
 .0137942,0.0310925,-0.0166183,-0.0424887,-0.0395668,0.0391765,0.000583
 5,0.0027733,-0.0097619,-0.0034221,-0.0538245,-0.0041499,0.0022958,0.00
 37509,-0.0207868,0.0581254,0.0009671,0.0055936,-0.0391127,0.0014353,-0
 .0090304,0.0507933,0.0060868,0.0329215,0.0239657,0.0136992,0.0067406,-
 0.0006786,0.019712,0.0004572,0.0031571,-0.0093438,0.0207298,0.0183042,
 -0.0022242,0.0074842,0.0079073,0.0253118,-0.0151831,0.0135858,0.010452
 8,0.0381863,0.0131022,-0.0032448,0.00549,-0.0027033,0.0164166,-0.00238
 76,0.0042351,-0.0093856,0.0270701,0.0146221,-0.0138584,0.0019443,-0.00
 73633,0.0299345,-0.0127859,-0.0065381,0.0050028,0.0409433\Polar=46.533
 4346,3.3121013,42.6575692,-0.4773807,-0.8787668,41.3005101\HyperPolar=
 -18.5975222,1.8742491,-11.0302777,33.2802208,13.1091142,1.6558671,-18.
 5865699,2.5709852,-7.147923,-30.1887339\PG=C01 [X(C5H10O1)]\NImag=0\\0
 .59755452,0.01438187,0.57451500,-0.00109238,-0.02990854,0.54299532,-0.
 09726184,0.06365376,0.01709176,0.56875633,0.06389611,-0.20154200,-0.03
 854304,0.01027160,0.56832391,0.01646745,-0.03931645,-0.07755644,-0.010
 28207,0.00120880,0.53939977,-0.03154319,0.02107077,0.01020131,-0.24399
 245,-0.01432854,0.04766752,0.56964141,0.03303453,-0.00456314,-0.009952
 30,-0.01039374,-0.06769722,0.00503900,-0.00262721,0.57903949,0.0130109
 1,-0.00528129,-0.00021655,0.04844871,0.00393045,-0.08025113,-0.0024687
 5,0.01356705,0.53788300,-0.00436660,0.00185500,0.00058960,-0.03717708,
 -0.03197606,-0.01333712,-0.10310184,-0.06741742,-0.04264647,0.58071988
 ,0.00075352,0.00088676,0.00083191,-0.02194848,-0.00733902,-0.00333514,
 -0.06334798,-0.17874956,-0.07120051,0.00673088,0.56515293,0.00025472,-
 0.00023837,0.00154640,-0.00443604,0.00071180,0.00565251,-0.04140888,-0
 .07232739,-0.11316510,0.01473880,0.00681321,0.53899906,-0.06185426,-0.
 04611922,0.02073551,0.00033634,0.00142467,-0.00126386,0.00985911,-0.00
 370023,0.00328813,-0.09768055,0.06671050,-0.01659832,0.59127824,-0.048
 51558,-0.01250108,-0.01186437,-0.00104929,-0.00209510,0.00015477,0.005
 16651,-0.05286316,-0.00517681,0.06544987,-0.20787558,0.03363051,0.0126
 2634,0.57729558,0.02345738,-0.00927425,0.00901439,-0.00079412,-0.00036
 614,0.00082738,0.00425271,-0.01328735,0.00502983,-0.01210742,0.0345693
 4,-0.07554007,0.01728191,-0.02411969,0.54375380,-0.11509278,-0.0849158
 2,0.04844670,0.00905048,-0.00406045,-0.00142362,-0.00263114,0.00097697
 ,-0.00025900,-0.04917477,0.01978369,-0.01503027,-0.30601068,-0.0108957
 1,-0.09898751,0.58331861,-0.07752070,-0.21762504,0.13383678,-0.0123102
 1,-0.06486348,0.02004098,0.00106965,-0.00288037,-0.00045447,0.03427047
 ,-0.00025468,0.01029523,-0.01857604,-0.06907842,0.01495727,0.15357779,
 0.38240847,0.04142128,0.12863150,-0.13940867,-0.00042286,0.01209975,0.
 00383920,0.00130481,-0.00087223,0.00093726,-0.02009106,0.00401305,-0.0
 0105726,-0.09196202,0.02003840,-0.09120294,0.05062788,-0.18783126,0.26
 197596,-0.00011658,0.00018123,-0.00022130,-0.00031621,-0.00017009,-0.0
 0035440,0.00184427,-0.00334064,-0.01601744,-0.04038971,-0.00142337,0.0
 0914391,0.00217711,0.00829955,-0.01451224,-0.00043554,0.00012178,0.000
 30204,0.04485084,-0.00023047,0.00006037,-0.00003339,0.00002969,0.00025
 222,-0.00004396,-0.00345750,-0.00060149,-0.02452376,-0.00161050,-0.044
 46790,0.03869875,0.00575910,-0.01331686,0.02775280,0.00031566,-0.00083
 890,0.00011767,0.00072272,0.06090088,-0.00010749,0.00004829,0.00004584
 ,-0.00020996,0.00002112,0.00002862,-0.00677045,-0.00967159,-0.02627037
 ,0.00810073,0.03916267,-0.27236080,-0.00515007,0.01327170,-0.01299579,
 0.00035964,0.00002006,0.00008910,-0.00549938,-0.04506809,0.32770081,0.
 00024446,-0.00000839,0.00006159,-0.00026034,-0.00128238,-0.00093977,-0
 .02285807,-0.01298823,-0.00128524,-0.26208889,-0.01384316,0.06410915,-
 0.02376112,0.01179724,0.00268181,-0.00061721,0.00151923,-0.00040702,-0
 .00697003,-0.00194784,0.01039809,0.31708007,-0.00026737,-0.00056553,-0
 .00002943,-0.00122697,-0.00224104,-0.00180866,-0.02581005,-0.00612799,
 0.00120583,-0.01408547,-0.03982104,0.00363977,0.02687929,-0.00381347,-
 0.00452782,0.00320553,-0.00271048,0.00134965,-0.00461203,0.00381252,0.
 00354245,0.01628110,0.05294158,0.00026709,0.00004788,-0.00015761,-0.00
 077014,-0.00159936,-0.00069889,-0.01294115,-0.00425980,0.00524303,0.06
 610146,0.00377915,-0.05872638,-0.00386772,0.00085392,0.00518130,-0.001
 29341,0.00073314,-0.00029418,0.02784824,0.00393500,-0.01645051,-0.0737
 8289,-0.00423860,0.06585856,0.00070606,0.00022854,-0.00398211,-0.00024
 529,-0.00031746,0.00022081,-0.00094834,0.00127267,-0.00050781,0.002786
 40,0.01167098,0.00718977,-0.03725547,-0.00052224,0.00293491,-0.0285686
 6,-0.02457089,-0.03364326,0.00035027,0.00033719,-0.00003289,-0.0001398
 9,-0.00003073,-0.00008443,0.05948080,-0.00013730,-0.00063647,-0.000311
 83,0.00005356,0.00012234,0.00007441,0.00167902,-0.00200680,0.00077865,
 0.00840853,-0.02945812,-0.01930883,-0.00296479,-0.12539676,-0.11061100
 ,-0.01444504,-0.00342211,-0.01429507,0.00008998,-0.00112127,0.00007270
 ,0.00040487,-0.00100173,0.00029699,0.00792088,0.15635220,0.00032325,-0
 .00025622,-0.00036464,-0.00012490,-0.00007379,0.00006825,-0.00025800,0
 .00073206,-0.00003252,0.00106398,-0.00340627,0.00355411,0.00045271,-0.
 11290165,-0.18661432,-0.02390194,-0.01259453,-0.01359979,-0.00011380,0
 .00061456,0.00049812,-0.00012980,0.00015270,-0.00016731,0.01705214,0.1
 3912156,0.22472765,-0.00536997,0.00375848,-0.00164247,0.00017849,0.000
 40208,-0.00014543,-0.00036092,0.00010442,-0.00019606,0.00530146,0.0060
 9006,-0.00662756,-0.07522103,-0.03924243,0.07235362,-0.04459014,-0.029
 62489,0.02677852,-0.00058832,0.00119944,-0.00040971,-0.00013805,0.0008
 8320,-0.00061559,0.00326937,-0.00074683,0.00563981,0.11809053,-0.00109
 102,0.00085265,0.00032003,0.00004325,0.00016479,-0.00006136,0.00031139
 ,-0.00002139,0.00017817,-0.00257983,-0.02174470,0.02576068,-0.04143962
 ,-0.08604873,0.08174950,-0.01886272,-0.00344738,0.00703953,0.00134838,
 -0.00235075,0.00032759,0.00038649,-0.00022871,0.00046594,0.00359202,0.
 00674894,-0.01142652,0.05836971,0.10614048,-0.00178287,0.00094462,-0.0
 0062153,0.00001410,0.00011811,0.00002138,-0.00000302,-0.00005201,-0.00
 003125,-0.00001660,0.01301988,-0.00666400,0.07719836,0.08505621,-0.194
 28824,0.01094651,0.00062147,0.00698211,-0.00016467,0.00033320,0.000247
 07,-0.00043331,0.00050935,0.00007579,0.01032514,0.00422149,-0.02799970
 ,-0.09583141,-0.10425384,0.22194185,-0.04274542,-0.00158806,-0.0157598
 8,0.00323271,0.00813884,0.01265799,0.00014796,0.00022642,-0.00013566,-
 0.00034132,0.00003296,-0.00000399,-0.00056312,0.00032698,0.00215496,-0
 .00061516,-0.00979055,0.02457419,-0.00018340,0.00004352,-0.00010274,0.
 00000786,0.00002262,-0.00001158,0.00034304,-0.00001079,-0.00015511,-0.
 00007053,-0.00001120,-0.00008976,0.04686735,-0.00223185,-0.04459241,-0
 .04731809,0.00461790,-0.01427296,-0.02730464,-0.00013342,-0.00080202,-
 0.00001974,-0.00022589,-0.00008665,-0.00005815,0.00052803,0.00130350,0
 .00154245,-0.00905003,-0.00858069,0.03349086,0.00002966,0.00000936,0.0
 0001425,-0.00001168,0.00006307,0.00001530,0.00038551,0.00001676,-0.000
 18923,-0.00013084,-0.00004014,-0.00012227,0.00484632,0.06588497,-0.010
 95812,-0.04403216,-0.26155133,0.00310749,-0.01331794,-0.01300260,-0.00
 009647,-0.00002201,-0.00002296,0.00011985,0.00001728,0.00003141,0.0008
 5546,0.,-0.00028696,0.01352675,0.02012315,-0.03780645,0.00013772,-0.00
 001165,0.00000235,-0.00001365,-0.00001872,0.00001866,0.00016415,0.0001
 3045,-0.00016336,-0.00009752,-0.00002549,0.00001164,0.00224832,0.04074
 174,0.32890178,-0.24630393,0.01731985,-0.07377562,-0.01840777,0.013771
 72,-0.00360249,0.00000137,0.00087127,0.00002206,0.00031977,-0.00004831
 ,0.00007470,0.00010086,-0.00246199,0.00215985,-0.04507910,-0.02073360,
 0.00207736,0.00001559,-0.00001726,0.00001157,0.00003663,-0.00001803,0.
 00002290,-0.00002859,0.00004560,0.00003901,-0.00058973,-0.00007551,-0.
 00018169,-0.00585232,-0.00015324,-0.00953286,0.31612801,0.02133325,-0.
 04091235,0.00885745,0.02695914,-0.00980038,0.00480466,0.00060518,-0.00
 254750,-0.00042845,0.00013014,-0.00008522,0.00009762,-0.00004614,-0.00
 346713,0.00414587,-0.03648612,-0.00472718,-0.00465259,-0.00001259,-0.0
 0000526,0.00000346,0.00002162,-0.00000634,-0.00002478,-0.00014399,0.00
 011164,0.00006242,-0.00119533,-0.00012367,-0.00047305,-0.00356283,0.00
 470209,-0.00283081,-0.00931514,0.05808762,-0.07960582,0.00762412,-0.07
 021848,0.00393835,-0.00206662,0.00565208,0.00029190,-0.00060289,-0.000
 03322,-0.00034477,0.00008369,-0.00009667,-0.00017647,0.00312815,-0.001
 85635,0.01751619,0.00124424,0.00920491,0.00003310,-0.00000578,0.000004
 60,-0.00004737,-0.00000906,0.00001514,0.00027862,-0.00001844,-0.000028
 04,0.00073060,0.00004667,0.00034623,-0.02566157,0.00028108,-0.01679168
 ,0.08214343,-0.00876995,0.07378150,0.00370406,0.00858246,-0.00626611,-
 0.04143607,-0.01402135,0.01777453,-0.01406379,-0.01693143,0.02705078,-
 0.00036155,0.00030080,0.00024542,-0.00021921,-0.00003600,0.00013016,-0
 .00015230,0.00181308,-0.00014078,0.00003636,0.00006071,-0.00006542,0.0
 0000552,-0.00007766,-0.00008472,0.00003700,-0.00000226,-0.00000508,-0.
 00001105,0.00001805,0.00001182,0.00040029,0.00023948,0.00004179,-0.000
 30351,0.00016781,0.00023417,0.05289786,0.00407407,-0.03015204,0.020393
 46,-0.01453905,-0.12158597,0.11295631,-0.00688010,-0.00064900,0.007877
 75,0.00013284,-0.00002879,-0.00008303,0.00064854,0.00007212,-0.0000692
 1,0.00071248,-0.00417005,0.00016760,-0.00001638,0.00001126,-0.00004766
 ,0.00002846,0.00006135,0.00000477,-0.00007770,0.00000843,-0.00001998,0
 .00004531,0.00003516,-0.00001237,-0.00004529,-0.00129112,-0.00021239,0
 .00047134,-0.00081512,-0.00049559,0.01500615,0.15128233,-0.00103088,0.
 00510723,0.00341030,0.01859500,0.11454605,-0.19532639,0.01236306,0.008
 37754,-0.00964442,0.00000526,-0.00003224,-0.00006394,0.00030918,-0.000
 06372,0.00004783,-0.00049645,-0.00166344,0.00058005,0.00005945,0.00004
 585,-0.00004357,-0.00000279,0.00000254,-0.00001189,-0.00002779,0.00000
 239,0.00000810,-0.00001623,0.00000125,-0.00002197,0.00010208,-0.000678
 09,0.00041512,0.00020638,-0.00019406,-0.00020944,-0.02693218,-0.136391
 41,0.23016903,0.00626381,0.00314707,0.00462660,-0.10010649,-0.05119413
 ,-0.09251930,-0.03085608,-0.01443688,-0.01878994,-0.00316114,0.0000941
 5,0.00106175,-0.00031607,0.00014203,-0.00002268,0.00005932,0.00094506,
 -0.00004904,0.00006971,0.00007304,0.00010673,-0.00025443,-0.00056109,-
 0.00030646,0.00002851,-0.00000106,0.00001919,0.00001158,-0.00000135,0.
 00000332,-0.00059114,0.00114337,0.00057280,0.00008793,0.00094281,0.000
 54294,0.00313444,0.00011655,-0.00448946,0.12713031,-0.00705113,-0.0231
 6318,-0.02657449,-0.05067274,-0.08091219,-0.07457387,-0.00875887,0.001
 38769,-0.00319830,-0.00024341,0.00015635,-0.00001260,0.00003093,-0.000
 00322,-0.00013416,0.00027019,-0.00032646,0.00058073,0.00003048,0.00001
 727,0.00002185,0.00000351,-0.00003935,0.00001286,0.00000829,0.00002358
 ,0.00000099,0.00001993,-0.00000364,0.00001746,0.00140795,-0.00236740,-
 0.00056597,0.00035170,-0.00050479,-0.00047008,0.00498551,0.00666520,0.
 01096803,0.06036323,0.09909597,-0.00183676,-0.01413794,-0.00662947,-0.
 09371523,-0.07578522,-0.17834667,-0.00247785,-0.00032957,0.00525184,0.
 00100307,0.00022854,-0.00004898,0.00002166,-0.00007492,-0.00006438,0.0
 0017949,0.00012550,-0.00030206,0.00001876,0.00001292,-0.00000882,0.000
 07312,0.00017481,0.00013193,-0.00000724,0.00000568,-0.00001173,0.00002
 218,-0.00000441,0.00002449,0.00019893,-0.00039415,0.00020454,0.0003017
 7,-0.00046866,0.00023052,-0.01348670,-0.00351891,-0.02949341,0.1088773
 5,0.09378471,0.20878706,-0.00326433,-0.00112982,0.00079076,-0.02871498
 ,0.02535252,-0.00206450,-0.09157701,0.09671679,-0.02555220,0.00670224,
 -0.00852765,0.00122867,-0.00103973,-0.00145809,-0.00123986,0.00038996,
 -0.00003462,-0.00003014,0.00013725,0.00008675,0.00013732,-0.00000417,-
 0.00044933,0.00004054,0.00018331,-0.00031889,0.00010376,0.00010054,-0.
 00004187,0.00000778,-0.00004244,0.00015674,-0.00002861,-0.00011755,0.0
 0054718,0.00009874,-0.00052516,0.00047682,0.00062451,-0.00069034,-0.00
 010300,0.00013933,0.11553211,-0.00053141,-0.00008169,0.00046114,0.0094
 2625,-0.00030850,-0.00064183,0.09681950,-0.21577830,0.04625449,0.00490
 275,-0.03547617,-0.00197042,-0.00170402,-0.00179045,-0.00163901,-0.000
 05488,0.00043722,-0.00030390,0.00017323,-0.00019819,-0.00030852,-0.000
 30759,-0.00050153,0.00009558,0.00028979,-0.00041953,0.00011558,0.00007
 905,0.00000641,-0.00000143,-0.00003306,0.00005636,-0.00000349,-0.00002
 350,0.00010880,0.00002759,0.00000919,0.00045988,-0.00009697,0.00002945
 ,-0.00011518,0.00002245,-0.11473451,0.26174372,0.00111579,0.00011911,-
 0.00007057,0.00538701,-0.00452837,0.00461542,-0.02674718,0.04820916,-0
 .05248313,0.00319466,-0.01451385,0.00441270,-0.00124561,-0.00148324,-0
 .00080587,-0.00018993,0.00035348,-0.00002763,0.00016000,-0.00048499,-0
 .00013206,0.00006827,0.00010401,0.00008943,0.00018202,-0.00026441,0.00
 011785,0.00006616,-0.00006297,-0.00000521,0.00000956,-0.00003361,0.000
 02824,0.00003721,-0.00016810,-0.00003536,0.00078181,-0.00035098,0.0000
 1753,0.00016708,0.00002683,-0.00016951,0.02908090,-0.05269284,0.058773
 40,-0.00055349,-0.00041759,0.00019521,-0.01363592,-0.00590713,0.031144
 51,-0.03956120,-0.00136707,0.01603777,0.00201358,-0.00302854,-0.013941
 88,0.00016998,0.00037252,0.00025661,0.00014857,-0.00015587,-0.00033933
 ,-0.00048170,-0.00136417,-0.00076594,-0.00028237,-0.00013289,-0.000522
 07,0.00000142,0.00002471,-0.00000529,-0.00001248,0.00003383,-0.0000037
 0,0.00000566,-0.00001001,-0.00004711,-0.00000766,0.00005489,0.00002805
 ,-0.00314286,-0.00015414,0.00073080,-0.00080991,-0.00064258,0.00068801
 ,0.00293045,0.00565982,-0.01206764,0.05321791,0.00010361,0.00002089,-0
 .00016548,-0.00291483,0.00379457,0.00280677,-0.00137817,-0.04513930,0.
 03649092,-0.00374190,-0.00080839,-0.02564883,-0.00005763,-0.00042101,-
 0.00068856,-0.00007143,0.00007894,0.00042668,-0.00142196,-0.00216339,-
 0.00141029,-0.00005330,0.00017876,-0.00011793,-0.00004276,0.00007889,0
 .00006833,-0.00001143,0.00006063,0.00007308,-0.00000384,-0.00000281,0.
 00002806,0.00001504,-0.00001542,0.00000284,-0.00011448,0.00009636,0.00
 006908,-0.00080225,0.00008932,0.00035926,0.00346105,-0.00814282,0.0257
 7078,0.00703423,0.05229469,0.00009636,-0.00007757,-0.00021633,0.014173
 20,0.00364439,-0.01492227,0.01709026,0.03545235,-0.27219406,-0.0063743
 0,-0.01003073,-0.02647293,0.00012089,-0.00044914,-0.00019918,-0.000020
 53,0.00019228,0.00009012,-0.00082000,-0.00133912,-0.00035470,-0.000350
 09,-0.00004875,-0.00010703,-0.00006190,0.00010534,0.00000716,-0.000008
 98,-0.00005491,-0.00001884,-0.00002591,0.00003224,0.00001142,-0.000003
 57,0.00003901,0.00003393,0.00071052,-0.00019835,0.00016691,0.00019904,
 0.00011607,0.00044453,-0.00333695,0.01068162,-0.01432516,-0.02138794,-
 0.03806475,0.32805626\\-0.00000050,-0.00000260,-0.00000185,0.00000498,
 0.00000914,-0.00000511,-0.00000369,-0.00000309,-0.00000433,-0.00000161
 ,0.00000097,0.00000641,0.00000225,0.00000132,0.00000125,-0.00000407,-0
 .00000254,0.00000142,0.00000106,0.00000019,-0.00000206,0.00000140,0.00
 000113,-0.00000154,0.00000027,-0.00000040,0.00000062,0.00000087,-0.000
 00116,-0.00000151,0.00000089,0.00000051,0.00000008,0.00000126,0.000000
 75,-0.00000027,-0.00000204,-0.00000240,0.00000176,-0.00000044,-0.00000
 329,0.00000231,-0.00000064,-0.00000044,0.00000179,0.,0.00000190,0.0000
 0103\\\@


 MICHAEL FARADAY, ASKED BY A POLITICIAN WHAT GOOD
 HIS ELECTRICAL DISCOVERIES WERE, REPLIED 
 "AT PRESENT I DO NOT KNOW, BUT ONE DAY YOU WILL BE
 ABLE TO TAX THEM."
 Job cpu time:  0 days  0 hours  0 minutes 15.4 seconds.
 File lengths (MBytes):  RWF=     10 Int=      0 D2E=      0 Chk=      2 Scr=      1
 Normal termination of Gaussian 09 at Wed Jun 13 00:37:32 2012.
