 Entering Gaussian System, Link 0=g09
 Initial command:
 /opt/software/gaussian//g09/l1.exe /scratch/g09/Gau-26587.inp -scrdir=/scratch/g09/
 Entering Link 1 = /opt/software/gaussian//g09/l1.exe PID=     26589.
  
 Copyright (c) 1988,1990,1992,1993,1995,1998,2003,2009,2011,
            Gaussian, Inc.  All Rights Reserved.
  
 This is part of the Gaussian(R) 09 program.  It is based on
 the Gaussian(R) 03 system (copyright 2003, Gaussian, Inc.),
 the Gaussian(R) 98 system (copyright 1998, Gaussian, Inc.),
 the Gaussian(R) 94 system (copyright 1995, Gaussian, Inc.),
 the Gaussian 92(TM) system (copyright 1992, Gaussian, Inc.),
 the Gaussian 90(TM) system (copyright 1990, Gaussian, Inc.),
 the Gaussian 88(TM) system (copyright 1988, Gaussian, Inc.),
 the Gaussian 86(TM) system (copyright 1986, Carnegie Mellon
 University), and the Gaussian 82(TM) system (copyright 1983,
 Carnegie Mellon University). Gaussian is a federally registered
 trademark of Gaussian, Inc.
  
 This software contains proprietary and confidential information,
 including trade secrets, belonging to Gaussian, Inc.
  
 This software is provided under written license and may be
 used, copied, transmitted, or stored only in accord with that
 written license.
  
 The following legend is applicable only to US Government
 contracts under FAR:
  
                    RESTRICTED RIGHTS LEGEND
  
 Use, reproduction and disclosure by the US Government is
 subject to restrictions as set forth in subparagraphs (a)
 and (c) of the Commercial Computer Software - Restricted
 Rights clause in FAR 52.227-19.
  
 Gaussian, Inc.
 340 Quinnipiac St., Bldg. 40, Wallingford CT 06492
  
  
 ---------------------------------------------------------------
 Warning -- This program may not be used in any manner that
 competes with the business of Gaussian, Inc. or will provide
 assistance to any competitor of Gaussian, Inc.  The licensee
 of this program is prohibited from giving any competitor of
 Gaussian, Inc. access to this program.  By using this program,
 the user acknowledges that Gaussian, Inc. is engaged in the
 business of creating and licensing software in the field of
 computational chemistry and represents and warrants to the
 licensee that it is not a competitor of Gaussian, Inc. and that
 it will not use this program in any manner prohibited above.
 ---------------------------------------------------------------
  

 Cite this work as:
 Gaussian 09, Revision C.01,
 M. J. Frisch, G. W. Trucks, H. B. Schlegel, G. E. Scuseria, 
 M. A. Robb, J. R. Cheeseman, G. Scalmani, V. Barone, B. Mennucci, 
 G. A. Petersson, H. Nakatsuji, M. Caricato, X. Li, H. P. Hratchian, 
 A. F. Izmaylov, J. Bloino, G. Zheng, J. L. Sonnenberg, M. Hada, 
 M. Ehara, K. Toyota, R. Fukuda, J. Hasegawa, M. Ishida, T. Nakajima, 
 Y. Honda, O. Kitao, H. Nakai, T. Vreven, J. A. Montgomery, Jr., 
 J. E. Peralta, F. Ogliaro, M. Bearpark, J. J. Heyd, E. Brothers, 
 K. N. Kudin, V. N. Staroverov, T. Keith, R. Kobayashi, J. Normand, 
 K. Raghavachari, A. Rendell, J. C. Burant, S. S. Iyengar, J. Tomasi, 
 M. Cossi, N. Rega, J. M. Millam, M. Klene, J. E. Knox, J. B. Cross, 
 V. Bakken, C. Adamo, J. Jaramillo, R. Gomperts, R. E. Stratmann, 
 O. Yazyev, A. J. Austin, R. Cammi, C. Pomelli, J. W. Ochterski, 
 R. L. Martin, K. Morokuma, V. G. Zakrzewski, G. A. Voth, 
 P. Salvador, J. J. Dannenberg, S. Dapprich, A. D. Daniels, 
 O. Farkas, J. B. Foresman, J. V. Ortiz, J. Cioslowski, 
 and D. J. Fox, Gaussian, Inc., Wallingford CT, 2010.
 
 ******************************************
 Gaussian 09:  EM64L-G09RevC.01 23-Sep-2011
                27-Dec-2012 
 ******************************************
 %chk=/home/hgo357/gaussian/oxane/B03m062xconstb3lypbigb3ltsb3ltstttsircfopt.chk
 %mem=30GB
 %nproc=8
 Will use up to    8 processors via shared memory.
 ----------------------------------------------------------------------
 # opt=(Tight) Freq b3lyp/6-311+G(2df,p) nosymm Int=(Grid=Ultrafine) sc
 f=xqc
 ----------------------------------------------------------------------
 1/7=10,14=-1,18=20,19=15,26=3,38=1/1,3;
 2/9=110,12=2,15=1,17=6,18=5,40=1/2;
 3/5=4,6=6,7=114,11=2,16=1,25=1,30=1,71=1,74=-5,75=-5/1,2,3;
 4//1;
 5/5=2,8=3,13=1,38=5/2,8;
 6/7=2,8=2,9=2,10=2,28=1/1;
 7/30=1/1,2,3,16;
 1/7=10,14=-1,18=20,19=15/3(2);
 2/9=110,15=1/2;
 99//99;
 2/9=110,15=1/2;
 3/5=4,6=6,7=114,11=2,16=1,25=1,30=1,71=1,74=-5,75=-5/1,2,3;
 4/5=5,16=3/1;
 5/5=2,8=3,13=1,38=5/2,8;
 7/30=1/1,2,3,16;
 1/7=10,14=-1,18=20,19=15/3(-5);
 2/9=110,15=1/2;
 6/7=2,8=2,9=2,10=2,19=2,28=1/1;
 99/9=1/99;
 --------
 from irc
 --------
 Charge =  0 Multiplicity = 1
 Symbolic Z-Matrix:
 6                     1.32496  -0.05363  -0.38035 
 6                     0.73279   1.32589  -0.02726 
 6                    -0.72099   1.17254   0.45509 
 6                    -1.41049   0.04459  -0.31491 
 6                    -0.66873  -1.2848   -0.06803 
 8                     0.68052  -1.08852   0.34732 
 1                    -1.13689  -1.8474    0.74199 
 1                    -0.68751  -1.91252  -0.97054 
 1                    -2.45679  -0.05833  -0.01733 
 1                    -1.4134    0.28615  -1.38274 
 1                    -0.7291    0.93521   1.52223 
 1                    -1.26441   2.11265   0.3368 
 1                     1.33174   1.81108   0.7472 
 1                     0.77346   1.97106  -0.91078 
 1                     2.38298  -0.11407  -0.12357 
 1                     1.23604  -0.2515   -1.45856 
 

 GradGradGradGradGradGradGradGradGradGradGradGradGradGradGradGradGradGrad
 Berny optimization.
 Initialization pass.
                           ----------------------------
                           !    Initial Parameters    !
                           ! (Angstroms and Degrees)  !
 --------------------------                            --------------------------
 ! Name  Definition              Value          Derivative Info.                !
 --------------------------------------------------------------------------------
 ! R1    R(1,2)                  1.5422         estimate D2E/DX2                !
 ! R2    R(1,6)                  1.4198         estimate D2E/DX2                !
 ! R3    R(1,15)                 1.0904         estimate D2E/DX2                !
 ! R4    R(1,16)                 1.0998         estimate D2E/DX2                !
 ! R5    R(2,3)                  1.5394         estimate D2E/DX2                !
 ! R6    R(2,13)                 1.0927         estimate D2E/DX2                !
 ! R7    R(2,14)                 1.0948         estimate D2E/DX2                !
 ! R8    R(3,4)                  1.5299         estimate D2E/DX2                !
 ! R9    R(3,11)                 1.0932         estimate D2E/DX2                !
 ! R10   R(3,12)                 1.0923         estimate D2E/DX2                !
 ! R11   R(4,5)                  1.5422         estimate D2E/DX2                !
 ! R12   R(4,9)                  1.0927         estimate D2E/DX2                !
 ! R13   R(4,10)                 1.0948         estimate D2E/DX2                !
 ! R14   R(5,6)                  1.4253         estimate D2E/DX2                !
 ! R15   R(5,7)                  1.0917         estimate D2E/DX2                !
 ! R16   R(5,8)                  1.0995         estimate D2E/DX2                !
 ! A1    A(2,1,6)              111.1232         estimate D2E/DX2                !
 ! A2    A(2,1,15)             111.6067         estimate D2E/DX2                !
 ! A3    A(2,1,16)             110.7534         estimate D2E/DX2                !
 ! A4    A(6,1,15)             106.2195         estimate D2E/DX2                !
 ! A5    A(6,1,16)             109.5489         estimate D2E/DX2                !
 ! A6    A(15,1,16)            107.4185         estimate D2E/DX2                !
 ! A7    A(1,2,3)              110.1979         estimate D2E/DX2                !
 ! A8    A(1,2,13)             110.4261         estimate D2E/DX2                !
 ! A9    A(1,2,14)             109.1541         estimate D2E/DX2                !
 ! A10   A(3,2,13)             109.8665         estimate D2E/DX2                !
 ! A11   A(3,2,14)             110.2835         estimate D2E/DX2                !
 ! A12   A(13,2,14)            106.8553         estimate D2E/DX2                !
 ! A13   A(2,3,4)              109.9603         estimate D2E/DX2                !
 ! A14   A(2,3,11)             109.5412         estimate D2E/DX2                !
 ! A15   A(2,3,12)             110.4977         estimate D2E/DX2                !
 ! A16   A(4,3,11)             109.1407         estimate D2E/DX2                !
 ! A17   A(4,3,12)             110.8448         estimate D2E/DX2                !
 ! A18   A(11,3,12)            106.7897         estimate D2E/DX2                !
 ! A19   A(3,4,5)              109.7669         estimate D2E/DX2                !
 ! A20   A(3,4,9)              111.3421         estimate D2E/DX2                !
 ! A21   A(3,4,10)             109.2334         estimate D2E/DX2                !
 ! A22   A(5,4,9)              109.6198         estimate D2E/DX2                !
 ! A23   A(5,4,10)             110.3407         estimate D2E/DX2                !
 ! A24   A(9,4,10)             106.4918         estimate D2E/DX2                !
 ! A25   A(4,5,6)              112.5348         estimate D2E/DX2                !
 ! A26   A(4,5,7)              110.9            estimate D2E/DX2                !
 ! A27   A(4,5,8)              110.6407         estimate D2E/DX2                !
 ! A28   A(6,5,7)              105.1119         estimate D2E/DX2                !
 ! A29   A(6,5,8)              109.5115         estimate D2E/DX2                !
 ! A30   A(7,5,8)              107.9083         estimate D2E/DX2                !
 ! A31   A(1,6,5)              112.3771         estimate D2E/DX2                !
 ! D1    D(6,1,2,3)            -26.0829         estimate D2E/DX2                !
 ! D2    D(6,1,2,13)            95.4777         estimate D2E/DX2                !
 ! D3    D(6,1,2,14)          -147.3352         estimate D2E/DX2                !
 ! D4    D(15,1,2,3)          -144.4474         estimate D2E/DX2                !
 ! D5    D(15,1,2,13)          -22.8869         estimate D2E/DX2                !
 ! D6    D(15,1,2,14)           94.3002         estimate D2E/DX2                !
 ! D7    D(16,1,2,3)            95.9226         estimate D2E/DX2                !
 ! D8    D(16,1,2,13)         -142.5169         estimate D2E/DX2                !
 ! D9    D(16,1,2,14)          -25.3298         estimate D2E/DX2                !
 ! D10   D(2,1,6,5)             68.8819         estimate D2E/DX2                !
 ! D11   D(15,1,6,5)          -169.5506         estimate D2E/DX2                !
 ! D12   D(16,1,6,5)           -53.8213         estimate D2E/DX2                !
 ! D13   D(1,2,3,4)            -35.3449         estimate D2E/DX2                !
 ! D14   D(1,2,3,11)            84.5936         estimate D2E/DX2                !
 ! D15   D(1,2,3,12)          -158.0245         estimate D2E/DX2                !
 ! D16   D(13,2,3,4)          -157.2375         estimate D2E/DX2                !
 ! D17   D(13,2,3,11)          -37.299          estimate D2E/DX2                !
 ! D18   D(13,2,3,12)           80.0829         estimate D2E/DX2                !
 ! D19   D(14,2,3,4)            85.2315         estimate D2E/DX2                !
 ! D20   D(14,2,3,11)         -154.8301         estimate D2E/DX2                !
 ! D21   D(14,2,3,12)          -37.4482         estimate D2E/DX2                !
 ! D22   D(2,3,4,5)             60.6427         estimate D2E/DX2                !
 ! D23   D(2,3,4,9)           -177.7908         estimate D2E/DX2                !
 ! D24   D(2,3,4,10)           -60.4606         estimate D2E/DX2                !
 ! D25   D(11,3,4,5)           -59.5386         estimate D2E/DX2                !
 ! D26   D(11,3,4,9)            62.0279         estimate D2E/DX2                !
 ! D27   D(11,3,4,10)          179.3581         estimate D2E/DX2                !
 ! D28   D(12,3,4,5)          -176.8826         estimate D2E/DX2                !
 ! D29   D(12,3,4,9)           -55.3161         estimate D2E/DX2                !
 ! D30   D(12,3,4,10)           62.0141         estimate D2E/DX2                !
 ! D31   D(3,4,5,6)            -22.26           estimate D2E/DX2                !
 ! D32   D(3,4,5,7)             95.1645         estimate D2E/DX2                !
 ! D33   D(3,4,5,8)           -145.1281         estimate D2E/DX2                !
 ! D34   D(9,4,5,6)           -144.8529         estimate D2E/DX2                !
 ! D35   D(9,4,5,7)            -27.4284         estimate D2E/DX2                !
 ! D36   D(9,4,5,8)             92.279          estimate D2E/DX2                !
 ! D37   D(10,4,5,6)            98.1741         estimate D2E/DX2                !
 ! D38   D(10,4,5,7)          -144.4014         estimate D2E/DX2                !
 ! D39   D(10,4,5,8)           -24.694          estimate D2E/DX2                !
 ! D40   D(4,5,6,1)            -41.6752         estimate D2E/DX2                !
 ! D41   D(7,5,6,1)           -162.4797         estimate D2E/DX2                !
 ! D42   D(8,5,6,1)             81.8239         estimate D2E/DX2                !
 --------------------------------------------------------------------------------
 Trust Radius=3.00D-01 FncErr=1.00D-07 GrdErr=1.00D-06
 Number of steps in this run=     99 maximum allowed number of steps=    100.
 GradGradGradGradGradGradGradGradGradGradGradGradGradGradGradGradGradGrad

                          Input orientation:                          
 ---------------------------------------------------------------------
 Center     Atomic      Atomic             Coordinates (Angstroms)
 Number     Number       Type             X           Y           Z
 ---------------------------------------------------------------------
      1          6           0        1.324962   -0.053628   -0.380354
      2          6           0        0.732788    1.325886   -0.027255
      3          6           0       -0.720993    1.172541    0.455086
      4          6           0       -1.410491    0.044590   -0.314909
      5          6           0       -0.668725   -1.284801   -0.068029
      6          8           0        0.680520   -1.088517    0.347321
      7          1           0       -1.136893   -1.847403    0.741989
      8          1           0       -0.687512   -1.912522   -0.970542
      9          1           0       -2.456788   -0.058328   -0.017327
     10          1           0       -1.413395    0.286151   -1.382740
     11          1           0       -0.729099    0.935213    1.522226
     12          1           0       -1.264406    2.112650    0.336799
     13          1           0        1.331743    1.811084    0.747195
     14          1           0        0.773456    1.971055   -0.910778
     15          1           0        2.382980   -0.114066   -0.123568
     16          1           0        1.236036   -0.251502   -1.458563
 ---------------------------------------------------------------------
                    Distance matrix (angstroms):
                    1          2          3          4          5
     1  C    0.000000
     2  C    1.542209   0.000000
     3  C    2.527327   1.539366   0.000000
     4  C    2.737998   2.513585   1.529893   0.000000
     5  C    2.363921   2.963374   2.512949   1.542221   0.000000
     6  O    1.419793   2.443846   2.662374   2.468766   1.425309
     7  H    3.246231   3.762606   3.061919   2.184382   1.091710
     8  H    2.802474   3.659826   3.398698   2.186971   1.099507
     9  H    3.799137   3.477002   2.179724   1.092650   2.168865
    10  H    2.935784   2.743080   2.154695   1.094817   2.179653
    11  H    2.969307   2.165786   1.093242   2.152340   2.731486
    12  H    3.451361   2.177227   1.092289   2.173232   3.472952
    13  H    2.179120   1.092674   2.169514   3.430512   3.775045
    14  H    2.164451   1.094765   2.176370   2.972533   3.659332
    15  H    1.090410   2.192230   3.409523   3.801606   3.269038
    16  H    1.099817   2.188619   3.085436   2.898227   2.574763
                    6          7          8          9         10
     6  O    0.000000
     7  H    2.008647   0.000000
     8  H    2.070570   1.771707   0.000000
     9  H    3.322192   2.349356   2.734409   0.000000
    10  H    3.044225   3.023736   2.351803   1.752623   0.000000
    11  H    2.731833   2.918564   3.784867   2.518384   3.054238
    12  H    3.745707   3.982770   4.271295   2.502064   2.512988
    13  H    2.998612   4.413470   4.570914   4.293269   3.794447
    14  H    3.309446   4.578394   4.149719   3.918051   2.800708
    15  H    2.017340   4.017854   3.657831   4.841255   4.019720
    16  H    2.066497   3.608340   2.587893   3.968807   2.704497
                   11         12         13         14         15
    11  H    0.000000
    12  H    1.754465   0.000000
    13  H    2.369577   2.645630   0.000000
    14  H    3.041406   2.393612   1.756744   0.000000
    15  H    3.673508   4.298096   2.359985   2.749181   0.000000
    16  H    3.762333   3.881333   3.021389   2.335339   1.765384
                   16
    16  H    0.000000
 Symmetry turned off by external request.
 Stoichiometry    C5H10O
 Framework group  C1[X(C5H10O)]
 Deg. of freedom    42
 Full point group                 C1      NOp   1
 Rotational constants (GHZ):      4.6649721      4.4513395      2.6801122
 Standard basis: 6-311+G(2df,p) (5D, 7F)
 Integral buffers will be    131072 words long.
 Raffenetti 2 integral format.
 Two-electron integral symmetry is turned off.
   264 basis functions,   392 primitive gaussians,   294 cartesian basis functions
    24 alpha electrons       24 beta electrons
       nuclear repulsion energy       260.1190957027 Hartrees.
 NAtoms=   16 NActive=   16 NUniq=   16 SFac= 1.00D+00 NAtFMM=   60 NAOKFM=F Big=F
 One-electron integrals computed using PRISM.
 NBasis=   264 RedAO= T  NBF=   264
 NBsUse=   264 1.00D-06 NBFU=   264
 Harris functional with IExCor=  402 diagonalized for initial guess.
 ExpMin= 4.38D-02 ExpMax= 8.59D+03 ExpMxC= 1.30D+03 IAcc=3 IRadAn=         5 AccDes= 0.00D+00
 HarFok:  IExCor=  402 AccDes= 0.00D+00 IRadAn=         5 IDoV= 1
 ScaDFX=  1.000000  1.000000  1.000000  1.000000
 FoFCou: FMM=F IPFlag=           0 FMFlag=      100000 FMFlg1=           0
         NFxFlg=           0 DoJE=T BraDBF=F KetDBF=T FulRan=T
         Omega=  0.000000  0.000000  1.000000  0.000000  0.000000 ICntrl=     500 IOpCl=  0
         NMat0=    1 NMatS0=    1 NMatT0=    0 NMatD0=    1 NMtDS0=    0 NMtDT0=    0
         I1Cent=           4 NGrid=           0.
 Symmetry not used in FoFCou.
 Requested convergence on RMS density matrix=1.00D-08 within  64 cycles.
 Requested convergence on MAX density matrix=1.00D-06.
 Requested convergence on             energy=1.00D-06.
 No special actions if energy rises.
 Keep R1 ints in memory in canonical form, NReq=953761572.
 SCF Done:  E(RB3LYP) =  -271.852338299     A.U. after   11 cycles
             Convg  =    0.4087D-08             -V/T =  2.0045
 QCSCF skips out because SCF is already converged.

 **********************************************************************

            Population analysis using the SCF density.

 **********************************************************************

 Alpha  occ. eigenvalues --  -19.11903 -10.21179 -10.21126 -10.16838 -10.16757
 Alpha  occ. eigenvalues --  -10.16586  -1.03234  -0.79786  -0.76030  -0.65001
 Alpha  occ. eigenvalues --   -0.63877  -0.54171  -0.50338  -0.49035  -0.47170
 Alpha  occ. eigenvalues --   -0.42175  -0.41647  -0.38403  -0.37178  -0.36566
 Alpha  occ. eigenvalues --   -0.34775  -0.32656  -0.29780  -0.25326
 Alpha virt. eigenvalues --    0.00242   0.02031   0.02322   0.02901   0.04046
 Alpha virt. eigenvalues --    0.04876   0.05888   0.06196   0.06416   0.08947
 Alpha virt. eigenvalues --    0.09879   0.10168   0.10242   0.10538   0.11195
 Alpha virt. eigenvalues --    0.12112   0.13960   0.15131   0.15848   0.16076
 Alpha virt. eigenvalues --    0.16702   0.17793   0.20158   0.20337   0.21246
 Alpha virt. eigenvalues --    0.22260   0.23065   0.23701   0.25570   0.25932
 Alpha virt. eigenvalues --    0.26722   0.27063   0.27525   0.29030   0.30323
 Alpha virt. eigenvalues --    0.31823   0.31948   0.32708   0.33148   0.35399
 Alpha virt. eigenvalues --    0.40879   0.43063   0.43514   0.45357   0.46714
 Alpha virt. eigenvalues --    0.47619   0.49839   0.50693   0.52049   0.53138
 Alpha virt. eigenvalues --    0.54448   0.55603   0.57899   0.59489   0.60729
 Alpha virt. eigenvalues --    0.62405   0.63556   0.64626   0.65433   0.66495
 Alpha virt. eigenvalues --    0.69294   0.69846   0.70462   0.72374   0.72774
 Alpha virt. eigenvalues --    0.73859   0.77449   0.79561   0.83093   0.86362
 Alpha virt. eigenvalues --    0.88514   0.91874   0.95281   0.97341   0.98706
 Alpha virt. eigenvalues --    1.03464   1.04557   1.07498   1.07951   1.10375
 Alpha virt. eigenvalues --    1.11649   1.14642   1.18288   1.21227   1.21683
 Alpha virt. eigenvalues --    1.22654   1.25062   1.29294   1.29687   1.31091
 Alpha virt. eigenvalues --    1.31479   1.33710   1.36055   1.37604   1.40274
 Alpha virt. eigenvalues --    1.42899   1.45129   1.46970   1.60058   1.62619
 Alpha virt. eigenvalues --    1.69413   1.70869   1.73932   1.76407   1.81560
 Alpha virt. eigenvalues --    1.83362   1.84584   1.88509   1.89092   1.91223
 Alpha virt. eigenvalues --    1.92488   1.95092   1.98872   2.02567   2.05404
 Alpha virt. eigenvalues --    2.11739   2.14767   2.15617   2.17906   2.20373
 Alpha virt. eigenvalues --    2.23830   2.26423   2.30192   2.30865   2.32657
 Alpha virt. eigenvalues --    2.33625   2.35121   2.36239   2.39199   2.41495
 Alpha virt. eigenvalues --    2.43697   2.47731   2.48472   2.50372   2.51742
 Alpha virt. eigenvalues --    2.53539   2.57748   2.59937   2.61091   2.63702
 Alpha virt. eigenvalues --    2.65093   2.66361   2.67890   2.73876   2.80416
 Alpha virt. eigenvalues --    2.83474   2.84945   2.90000   2.92511   2.94087
 Alpha virt. eigenvalues --    2.95394   2.99429   3.01752   3.08674   3.11735
 Alpha virt. eigenvalues --    3.14304   3.16662   3.20561   3.21812   3.25234
 Alpha virt. eigenvalues --    3.26037   3.27956   3.29427   3.33074   3.34574
 Alpha virt. eigenvalues --    3.36886   3.38752   3.42432   3.44107   3.46218
 Alpha virt. eigenvalues --    3.47290   3.49046   3.51672   3.52575   3.53358
 Alpha virt. eigenvalues --    3.56996   3.58694   3.60334   3.61762   3.64980
 Alpha virt. eigenvalues --    3.66008   3.68640   3.71717   3.73448   3.76433
 Alpha virt. eigenvalues --    3.79189   3.82539   3.83800   3.84405   3.88179
 Alpha virt. eigenvalues --    3.91124   3.93983   3.95743   4.04658   4.05717
 Alpha virt. eigenvalues --    4.13131   4.14997   4.18485   4.19258   4.22634
 Alpha virt. eigenvalues --    4.26176   4.29611   4.34281   4.34926   4.43847
 Alpha virt. eigenvalues --    4.45451   4.48953   4.50648   4.53849   4.67243
 Alpha virt. eigenvalues --    4.71399   4.76898   4.80776   4.85134   4.88705
 Alpha virt. eigenvalues --    4.94658   4.99737   5.10077   5.18594   5.24875
 Alpha virt. eigenvalues --    5.28871   5.34724   5.43818   5.55369   5.75362
 Alpha virt. eigenvalues --    5.84167   6.12567   6.42537   6.57751   7.20254
 Alpha virt. eigenvalues --    7.25541   7.32177   7.66532   7.76490  24.27183
 Alpha virt. eigenvalues --   24.30982  24.37356  24.41433  24.41940  50.08187
          Condensed to atoms (all electrons):
              1          2          3          4          5          6
     1  C    5.428550  -0.008147   0.068522  -0.014513  -0.246184   0.174502
     2  C   -0.008147   5.532108   0.057313  -0.116082   0.184037  -0.064514
     3  C    0.068522   0.057313   5.339323   0.127259  -0.055331   0.004359
     4  C   -0.014513  -0.116082   0.127259   5.511590  -0.007763  -0.025593
     5  C   -0.246184   0.184037  -0.055331  -0.007763   5.384521   0.154826
     6  O    0.174502  -0.064514   0.004359  -0.025593   0.154826   8.161987
     7  H    0.017212  -0.009767  -0.008185  -0.023482   0.424271  -0.059600
     8  H    0.000292   0.002411   0.012013  -0.099372   0.468210  -0.064530
     9  H   -0.003632   0.015372  -0.026527   0.386555  -0.022530   0.004999
    10  H   -0.005672   0.001689  -0.073252   0.470322  -0.057330   0.003736
    11  H    0.004283  -0.064322   0.436659  -0.034060  -0.007231  -0.003958
    12  H    0.008651  -0.035406   0.431230  -0.058843   0.011640  -0.001303
    13  H   -0.044209   0.419003  -0.042864   0.017789  -0.002164   0.000028
    14  H   -0.056209   0.445329  -0.066519   0.008569  -0.003642   0.008107
    15  H    0.417165  -0.040966   0.010896  -0.006828   0.016102  -0.052386
    16  H    0.450299  -0.062917  -0.007188  -0.008211   0.001358  -0.053343
              7          8          9         10         11         12
     1  C    0.017212   0.000292  -0.003632  -0.005672   0.004283   0.008651
     2  C   -0.009767   0.002411   0.015372   0.001689  -0.064322  -0.035406
     3  C   -0.008185   0.012013  -0.026527  -0.073252   0.436659   0.431230
     4  C   -0.023482  -0.099372   0.386555   0.470322  -0.034060  -0.058843
     5  C    0.424271   0.468210  -0.022530  -0.057330  -0.007231   0.011640
     6  O   -0.059600  -0.064530   0.004999   0.003736  -0.003958  -0.001303
     7  H    0.587275  -0.048629  -0.012848   0.007587   0.002156  -0.000384
     8  H   -0.048629   0.613634   0.004857  -0.014593  -0.000438  -0.000237
     9  H   -0.012848   0.004857   0.588763  -0.042171  -0.005580  -0.004103
    10  H    0.007587  -0.014593  -0.042171   0.585965   0.008211  -0.005813
    11  H    0.002156  -0.000438  -0.005580   0.008211   0.582093  -0.042878
    12  H   -0.000384  -0.000237  -0.004103  -0.005813  -0.042878   0.592141
    13  H    0.000177   0.000023  -0.000378  -0.000231  -0.011810   0.001100
    14  H    0.000023   0.000246  -0.000220   0.001805   0.007992  -0.012900
    15  H   -0.000439  -0.000085   0.000086   0.000144   0.000157  -0.000301
    16  H   -0.000915   0.010361   0.000199  -0.003271  -0.000924   0.000002
             13         14         15         16
     1  C   -0.044209  -0.056209   0.417165   0.450299
     2  C    0.419003   0.445329  -0.040966  -0.062917
     3  C   -0.042864  -0.066519   0.010896  -0.007188
     4  C    0.017789   0.008569  -0.006828  -0.008211
     5  C   -0.002164  -0.003642   0.016102   0.001358
     6  O    0.000028   0.008107  -0.052386  -0.053343
     7  H    0.000177   0.000023  -0.000439  -0.000915
     8  H    0.000023   0.000246  -0.000085   0.010361
     9  H   -0.000378  -0.000220   0.000086   0.000199
    10  H   -0.000231   0.001805   0.000144  -0.003271
    11  H   -0.011810   0.007992   0.000157  -0.000924
    12  H    0.001100  -0.012900  -0.000301   0.000002
    13  H    0.592826  -0.045076  -0.013657   0.007552
    14  H   -0.045076   0.597526   0.004917  -0.012315
    15  H   -0.013657   0.004917   0.581488  -0.041943
    16  H    0.007552  -0.012315  -0.041943   0.608430
 Mulliken atomic charges:
              1
     1  C   -0.190911
     2  C   -0.255143
     3  C   -0.207707
     4  C   -0.127335
     5  C   -0.242792
     6  O   -0.187320
     7  H    0.125548
     8  H    0.115837
     9  H    0.117160
    10  H    0.122875
    11  H    0.129651
    12  H    0.117405
    13  H    0.121888
    14  H    0.122367
    15  H    0.125650
    16  H    0.112826
 Sum of Mulliken atomic charges =   0.00000
 Mulliken charges with hydrogens summed into heavy atoms:
              1
     1  C    0.047565
     2  C   -0.010887
     3  C    0.039349
     4  C    0.112700
     5  C   -0.001407
     6  O   -0.187320
 Sum of Mulliken charges with hydrogens summed into heavy atoms =   0.00000
 Electronic spatial extent (au):  <R**2>=            542.5818
 Charge=              0.0000 electrons
 Dipole moment (field-independent basis, Debye):
    X=             -0.7774    Y=              1.0192    Z=             -0.8235  Tot=              1.5236
 Quadrupole moment (field-independent basis, Debye-Ang):
   XX=            -37.5068   YY=            -40.0699   ZZ=            -38.7519
   XY=              2.2396   XZ=             -1.0228   YZ=              0.8475
 Traceless Quadrupole moment (field-independent basis, Debye-Ang):
   XX=              1.2694   YY=             -1.2937   ZZ=              0.0243
   XY=              2.2396   XZ=             -1.0228   YZ=              0.8475
 Octapole moment (field-independent basis, Debye-Ang**2):
  XXX=              7.4366  YYY=             -6.1974  ZZZ=              2.7194  XYY=             -2.3592
  XXY=             -1.9620  XXZ=              2.0559  XZZ=              1.2090  YZZ=             -2.2533
  YYZ=             -0.0151  XYZ=              1.8923
 Hexadecapole moment (field-independent basis, Debye-Ang**3):
 XXXX=           -307.3187 YYYY=           -325.5725 ZZZZ=           -102.9371 XXXY=             -7.2788
 XXXZ=              4.6755 YYYX=             -4.8265 YYYZ=             -8.6509 ZZZX=              4.5642
 ZZZY=             -7.9819 XXYY=           -109.1918 XXZZ=            -72.0276 YYZZ=            -70.1814
 XXYZ=             -2.4731 YYXZ=              0.3646 ZZXY=             -0.5012
 N-N= 2.601190957027D+02 E-N=-1.153335396539D+03  KE= 2.706339377522D+02
 Calling FoFJK, ICntrl=      2127 FMM=F ISym2X=0 I1Cent= 0 IOpClX= 0 NMat=1 NMatS=1 NMatT=0.
 -------------------------------------------------------------------
 Center     Atomic                   Forces (Hartrees/Bohr)
 Number     Number              X              Y              Z
 -------------------------------------------------------------------
      1        6          -0.000073762    0.000066916   -0.000185412
      2        6           0.000104519    0.000058764    0.000225541
      3        6          -0.000063912    0.000048900   -0.000071950
      4        6           0.000077633   -0.000055577   -0.000165638
      5        6          -0.000073361   -0.000085993    0.000241552
      6        8           0.000066938   -0.000051942   -0.000175918
      7        1           0.000061759    0.000108078   -0.000050438
      8        1          -0.000021302    0.000039418    0.000154679
      9        1           0.000039703    0.000001017   -0.000045665
     10        1           0.000032847   -0.000028045    0.000038311
     11        1          -0.000026708    0.000013898   -0.000040341
     12        1           0.000007511   -0.000012086   -0.000019838
     13        1          -0.000065338   -0.000099201   -0.000045023
     14        1           0.000027067   -0.000042807    0.000141407
     15        1          -0.000062278    0.000007452   -0.000056267
     16        1          -0.000031316    0.000031210    0.000055000
 -------------------------------------------------------------------
 Cartesian Forces:  Max     0.000241552 RMS     0.000088019

 GradGradGradGradGradGradGradGradGradGradGradGradGradGradGradGradGradGrad
 Berny optimization.
 Internal  Forces:  Max     0.000150148 RMS     0.000058353
 Search for a local minimum.
 Step number   1 out of a maximum of   99
 All quantities printed in internal units (Hartrees-Bohrs-Radians)
 Mixed Optimization -- En-DIIS/RFO-DIIS
 Second derivative matrix not updated -- first step.
 ITU=  0
     Eigenvalues ---    0.00313   0.00521   0.01353   0.02629   0.03144
     Eigenvalues ---    0.04016   0.04259   0.04709   0.04872   0.05024
     Eigenvalues ---    0.05526   0.05835   0.06175   0.07461   0.07847
     Eigenvalues ---    0.07868   0.07879   0.09286   0.11149   0.11703
     Eigenvalues ---    0.11812   0.12123   0.13390   0.18323   0.19968
     Eigenvalues ---    0.22563   0.26602   0.27474   0.28021   0.28716
     Eigenvalues ---    0.33702   0.33737   0.34262   0.34268   0.34441
     Eigenvalues ---    0.34505   0.34508   0.34549   0.34616   0.34765
     Eigenvalues ---    0.39612   0.40367
 RFO step:  Lambda=-2.99442475D-05 EMin= 3.13368368D-03
 Linear search not attempted -- first point.
 Iteration  1 RMS(Cart)=  0.01122396 RMS(Int)=  0.00005813
 Iteration  2 RMS(Cart)=  0.00007461 RMS(Int)=  0.00001884
 Iteration  3 RMS(Cart)=  0.00000000 RMS(Int)=  0.00001884
 Variable       Old X    -DE/DX   Delta X   Delta X   Delta X     New X
                                 (Linear)    (Quad)   (Total)
    R1        2.91435  -0.00006   0.00000  -0.00022  -0.00022   2.91413
    R2        2.68302   0.00000   0.00000  -0.00013  -0.00012   2.68290
    R3        2.06058  -0.00007   0.00000  -0.00021  -0.00021   2.06036
    R4        2.07835  -0.00006   0.00000  -0.00017  -0.00017   2.07818
    R5        2.90898  -0.00006   0.00000  -0.00006  -0.00007   2.90891
    R6        2.06486  -0.00011   0.00000  -0.00032  -0.00032   2.06453
    R7        2.06881  -0.00014   0.00000  -0.00040  -0.00040   2.06840
    R8        2.89108   0.00001   0.00000   0.00006   0.00007   2.89115
    R9        2.06593  -0.00004   0.00000  -0.00012  -0.00012   2.06581
   R10        2.06413  -0.00001   0.00000  -0.00003  -0.00003   2.06409
   R11        2.91438  -0.00004   0.00000  -0.00010  -0.00010   2.91427
   R12        2.06481  -0.00005   0.00000  -0.00015  -0.00015   2.06466
   R13        2.06890  -0.00004   0.00000  -0.00013  -0.00013   2.06878
   R14        2.69344  -0.00009   0.00000  -0.00026  -0.00026   2.69318
   R15        2.06303  -0.00012   0.00000  -0.00034  -0.00034   2.06269
   R16        2.07777  -0.00015   0.00000  -0.00044  -0.00044   2.07733
    A1        1.93947  -0.00005   0.00000  -0.00108  -0.00113   1.93833
    A2        1.94790   0.00001   0.00000  -0.00029  -0.00026   1.94764
    A3        1.93301  -0.00001   0.00000   0.00057   0.00057   1.93358
    A4        1.85388  -0.00003   0.00000  -0.00044  -0.00043   1.85345
    A5        1.91199   0.00008   0.00000   0.00109   0.00112   1.91311
    A6        1.87481   0.00000   0.00000   0.00017   0.00017   1.87498
    A7        1.92332   0.00001   0.00000  -0.00011  -0.00019   1.92313
    A8        1.92730   0.00002   0.00000   0.00060   0.00061   1.92791
    A9        1.90510  -0.00003   0.00000  -0.00062  -0.00059   1.90451
   A10        1.91753   0.00004   0.00000   0.00079   0.00082   1.91835
   A11        1.92481  -0.00004   0.00000  -0.00069  -0.00067   1.92414
   A12        1.86498   0.00000   0.00000   0.00002   0.00001   1.86498
   A13        1.91917   0.00003   0.00000   0.00021   0.00016   1.91933
   A14        1.91185   0.00003   0.00000   0.00004   0.00004   1.91189
   A15        1.92855  -0.00003   0.00000   0.00002   0.00005   1.92860
   A16        1.90486  -0.00008   0.00000  -0.00077  -0.00075   1.90411
   A17        1.93461   0.00004   0.00000   0.00051   0.00052   1.93513
   A18        1.86383   0.00001   0.00000  -0.00003  -0.00004   1.86379
   A19        1.91579  -0.00005   0.00000   0.00010   0.00007   1.91586
   A20        1.94329  -0.00004   0.00000  -0.00045  -0.00044   1.94284
   A21        1.90648   0.00008   0.00000   0.00062   0.00063   1.90712
   A22        1.91323   0.00002   0.00000  -0.00025  -0.00022   1.91300
   A23        1.92581   0.00000   0.00000  -0.00001  -0.00002   1.92579
   A24        1.85863  -0.00001   0.00000  -0.00001  -0.00002   1.85861
   A25        1.96410   0.00001   0.00000  -0.00002  -0.00009   1.96402
   A26        1.93557   0.00002   0.00000   0.00111   0.00112   1.93669
   A27        1.93104  -0.00002   0.00000  -0.00104  -0.00102   1.93002
   A28        1.83455   0.00004   0.00000   0.00085   0.00088   1.83542
   A29        1.91134  -0.00005   0.00000  -0.00087  -0.00086   1.91048
   A30        1.88336   0.00000   0.00000   0.00005   0.00005   1.88340
   A31        1.96135   0.00005   0.00000  -0.00019  -0.00024   1.96111
    D1       -0.45523  -0.00014   0.00000  -0.02046  -0.02046  -0.47570
    D2        1.66640  -0.00007   0.00000  -0.01915  -0.01916   1.64724
    D3       -2.57148  -0.00007   0.00000  -0.01915  -0.01914  -2.59063
    D4       -2.52108  -0.00008   0.00000  -0.01901  -0.01901  -2.54009
    D5       -0.39945  -0.00001   0.00000  -0.01770  -0.01770  -0.41715
    D6        1.64585  -0.00001   0.00000  -0.01769  -0.01769   1.62816
    D7        1.67417  -0.00008   0.00000  -0.01942  -0.01943   1.65474
    D8       -2.48739  -0.00001   0.00000  -0.01811  -0.01812  -2.50551
    D9       -0.44209  -0.00001   0.00000  -0.01811  -0.01811  -0.46020
   D10        1.20222   0.00003   0.00000   0.00488   0.00484   1.20705
   D11       -2.95922   0.00000   0.00000   0.00362   0.00360  -2.95562
   D12       -0.93936   0.00002   0.00000   0.00413   0.00411  -0.93524
   D13       -0.61688   0.00013   0.00000   0.01740   0.01739  -0.59949
   D14        1.47644   0.00007   0.00000   0.01660   0.01659   1.49302
   D15       -2.75805   0.00007   0.00000   0.01660   0.01659  -2.74145
   D16       -2.74431   0.00007   0.00000   0.01621   0.01621  -2.72810
   D17       -0.65099   0.00001   0.00000   0.01541   0.01541  -0.63558
   D18        1.39771   0.00001   0.00000   0.01540   0.01541   1.41312
   D19        1.48757   0.00006   0.00000   0.01612   0.01611   1.50368
   D20       -2.70229   0.00001   0.00000   0.01532   0.01530  -2.68699
   D21       -0.65359   0.00001   0.00000   0.01532   0.01531  -0.63828
   D22        1.05841   0.00002   0.00000   0.00171   0.00168   1.06009
   D23       -3.10303  -0.00001   0.00000   0.00117   0.00115  -3.10189
   D24       -1.05524   0.00001   0.00000   0.00127   0.00125  -1.05398
   D25       -1.03915   0.00002   0.00000   0.00201   0.00200  -1.03715
   D26        1.08259  -0.00002   0.00000   0.00147   0.00147   1.08406
   D27        3.13039   0.00000   0.00000   0.00157   0.00158   3.13197
   D28       -3.08718   0.00003   0.00000   0.00222   0.00220  -3.08498
   D29       -0.96545   0.00000   0.00000   0.00168   0.00167  -0.96378
   D30        1.08235   0.00002   0.00000   0.00178   0.00178   1.08413
   D31       -0.38851  -0.00015   0.00000  -0.01762  -0.01763  -0.40614
   D32        1.66093  -0.00008   0.00000  -0.01582  -0.01583   1.64511
   D33       -2.53296  -0.00008   0.00000  -0.01571  -0.01570  -2.54867
   D34       -2.52816  -0.00008   0.00000  -0.01697  -0.01697  -2.54513
   D35       -0.47872  -0.00001   0.00000  -0.01516  -0.01517  -0.49389
   D36        1.61057  -0.00001   0.00000  -0.01505  -0.01505   1.59553
   D37        1.71346  -0.00008   0.00000  -0.01679  -0.01680   1.69666
   D38       -2.52028  -0.00001   0.00000  -0.01499  -0.01500  -2.53528
   D39       -0.43099  -0.00001   0.00000  -0.01488  -0.01488  -0.44587
   D40       -0.72737   0.00013   0.00000   0.01575   0.01575  -0.71162
   D41       -2.83581   0.00007   0.00000   0.01386   0.01387  -2.82194
   D42        1.42810   0.00008   0.00000   0.01376   0.01376   1.44185
         Item               Value     Threshold  Converged?
 Maximum Force            0.000150     0.000015     NO 
 RMS     Force            0.000058     0.000010     NO 
 Maximum Displacement     0.038511     0.000060     NO 
 RMS     Displacement     0.011224     0.000040     NO 
 Predicted change in Energy=-1.508550D-05
 GradGradGradGradGradGradGradGradGradGradGradGradGradGradGradGradGradGrad

                          Input orientation:                          
 ---------------------------------------------------------------------
 Center     Atomic      Atomic             Coordinates (Angstroms)
 Number     Number       Type             X           Y           Z
 ---------------------------------------------------------------------
      1          6           0        1.321402   -0.051633   -0.388231
      2          6           0        0.734344    1.325868   -0.019585
      3          6           0       -0.722789    1.173176    0.452618
      4          6           0       -1.406415    0.042815   -0.319153
      5          6           0       -0.667528   -1.286060   -0.061439
      6          8           0        0.685041   -1.089426    0.342294
      7          1           0       -1.132248   -1.838959    0.756956
      8          1           0       -0.693518   -1.922709   -0.957209
      9          1           0       -2.454956   -0.058510   -0.029307
     10          1           0       -1.400965    0.280188   -1.387843
     11          1           0       -0.738537    0.937968    1.520076
     12          1           0       -1.265562    2.112895    0.328599
     13          1           0        1.331730    1.798402    0.763616
     14          1           0        0.782194    1.981777   -0.894534
     15          1           0        2.382143   -0.114106   -0.143947
     16          1           0        1.219846   -0.243284   -1.466358
 ---------------------------------------------------------------------
                    Distance matrix (angstroms):
                    1          2          3          4          5
     1  C    0.000000
     2  C    1.542092   0.000000
     3  C    2.527035   1.539328   0.000000
     4  C    2.730326   2.513726   1.529931   0.000000
     5  C    2.363566   2.964653   2.512996   1.542168   0.000000
     6  O    1.419731   2.442751   2.667119   2.468537   1.425170
     7  H    3.244440   3.755438   3.055034   2.185006   1.091528
     8  H    2.807947   3.670311   3.401908   2.186007   1.099273
     9  H    3.793384   3.476814   2.179382   1.092573   2.168597
    10  H    2.919009   2.743195   2.155144   1.094749   2.179544
    11  H    2.977297   2.165734   1.093177   2.151772   2.729933
    12  H    3.448392   2.177215   1.092270   2.173626   3.473135
    13  H    2.179332   1.092503   2.169949   3.428107   3.767181
    14  H    2.163758   1.094551   2.175691   2.980042   3.670763
    15  H    1.090297   2.191855   3.413735   3.795852   3.268145
    16  H    1.099728   2.188859   3.076144   2.880136   2.573589
                    6          7          8          9         10
     6  O    0.000000
     7  H    2.009051   0.000000
     8  H    2.069661   1.771400   0.000000
     9  H    3.325727   2.353246   2.727436   0.000000
    10  H    3.036550   3.027071   2.353441   1.752494   0.000000
    11  H    2.743004   2.906662   3.784500   2.517866   3.054092
    12  H    3.749653   3.977237   4.273949   2.501550   2.514622
    13  H    2.989192   4.393362   4.572695   4.291368   3.794914
    14  H    3.312321   4.581543   4.174527   3.923077   2.811573
    15  H    2.016886   4.017173   3.659526   4.838777   4.001830
    16  H    2.067171   3.608553   2.596279   3.950118   2.673731
                   11         12         13         14         15
    11  H    0.000000
    12  H    1.754373   0.000000
    13  H    2.366133   2.652182   0.000000
    14  H    3.038504   2.388839   1.756439   0.000000
    15  H    3.689779   4.299835   2.363202   2.741522   0.000000
    16  H    3.761570   3.866614   3.025522   2.338680   1.765330
                   16
    16  H    0.000000
 Symmetry turned off by external request.
 Stoichiometry    C5H10O
 Framework group  C1[X(C5H10O)]
 Deg. of freedom    42
 Full point group                 C1      NOp   1
 Rotational constants (GHZ):      4.6699122      4.4481236      2.6812079
 Standard basis: 6-311+G(2df,p) (5D, 7F)
 Integral buffers will be    131072 words long.
 Raffenetti 2 integral format.
 Two-electron integral symmetry is turned off.
   264 basis functions,   392 primitive gaussians,   294 cartesian basis functions
    24 alpha electrons       24 beta electrons
       nuclear repulsion energy       260.1478123208 Hartrees.
 NAtoms=   16 NActive=   16 NUniq=   16 SFac= 1.00D+00 NAtFMM=   60 NAOKFM=F Big=F
 One-electron integrals computed using PRISM.
 NBasis=   264 RedAO= T  NBF=   264
 NBsUse=   264 1.00D-06 NBFU=   264
 Initial guess read from the read-write file.
 B after Tr=     0.000000    0.000000    0.000000
         Rot=    1.000000    0.000000    0.000000    0.000000 Ang=   0.00 deg.
 Harris functional with IExCor=  402 diagonalized for initial guess.
 ExpMin= 4.38D-02 ExpMax= 8.59D+03 ExpMxC= 1.30D+03 IAcc=3 IRadAn=         5 AccDes= 0.00D+00
 HarFok:  IExCor=  402 AccDes= 0.00D+00 IRadAn=         5 IDoV= 1
 ScaDFX=  1.000000  1.000000  1.000000  1.000000
 FoFCou: FMM=F IPFlag=           0 FMFlag=      100000 FMFlg1=           0
         NFxFlg=           0 DoJE=T BraDBF=F KetDBF=T FulRan=T
         Omega=  0.000000  0.000000  1.000000  0.000000  0.000000 ICntrl=     500 IOpCl=  0
         NMat0=    1 NMatS0=    1 NMatT0=    0 NMatD0=    1 NMtDS0=    0 NMtDT0=    0
         I1Cent=           4 NGrid=           0.
 Symmetry not used in FoFCou.
 Requested convergence on RMS density matrix=1.00D-08 within  64 cycles.
 Requested convergence on MAX density matrix=1.00D-06.
 Requested convergence on             energy=1.00D-06.
 No special actions if energy rises.
 Keep R1 ints in memory in canonical form, NReq=953761572.
 SCF Done:  E(RB3LYP) =  -271.852362240     A.U. after    8 cycles
             Convg  =    0.6410D-08             -V/T =  2.0045
 QCSCF skips out because SCF is already converged.
 Calling FoFJK, ICntrl=      2127 FMM=F ISym2X=0 I1Cent= 0 IOpClX= 0 NMat=1 NMatS=1 NMatT=0.
 -------------------------------------------------------------------
 Center     Atomic                   Forces (Hartrees/Bohr)
 Number     Number              X              Y              Z
 -------------------------------------------------------------------
      1        6           0.000084258    0.000330232    0.000229023
      2        6           0.000145671   -0.000169465   -0.000215944
      3        6          -0.000138078   -0.000049272    0.000060507
      4        6           0.000044989   -0.000157987    0.000085091
      5        6          -0.000156998    0.000157081   -0.000182873
      6        8           0.000133114    0.000007710   -0.000095223
      7        1          -0.000075004    0.000133021    0.000089677
      8        1          -0.000120287   -0.000091311    0.000049798
      9        1          -0.000023588   -0.000071423   -0.000049732
     10        1           0.000024791   -0.000039053    0.000023704
     11        1          -0.000059514    0.000010775    0.000037101
     12        1          -0.000043091   -0.000041374    0.000003579
     13        1           0.000018054   -0.000155799    0.000032811
     14        1           0.000155091    0.000031973   -0.000017586
     15        1           0.000054962    0.000064691   -0.000106578
     16        1          -0.000044371    0.000040201    0.000056644
 -------------------------------------------------------------------
 Cartesian Forces:  Max     0.000330232 RMS     0.000110556

 GradGradGradGradGradGradGradGradGradGradGradGradGradGradGradGradGradGrad
 Berny optimization.
 Using GEDIIS/GDIIS optimizer.
 Internal  Forces:  Max     0.000363085 RMS     0.000085189
 Search for a local minimum.
 Step number   2 out of a maximum of   99
 All quantities printed in internal units (Hartrees-Bohrs-Radians)
 Mixed Optimization -- En-DIIS/RFO-DIIS
 Swaping is turned off.
 Update second derivatives using D2CorX and points    1    2
 DE= -2.39D-05 DEPred=-1.51D-05 R= 1.59D+00
 SS=  1.41D+00  RLast= 9.22D-02 DXNew= 5.0454D-01 2.7647D-01
 Trust test= 1.59D+00 RLast= 9.22D-02 DXMaxT set to 3.00D-01
 ITU=  1  0
     Eigenvalues ---    0.00093   0.00508   0.01349   0.02595   0.03132
     Eigenvalues ---    0.04103   0.04662   0.04747   0.04955   0.05185
     Eigenvalues ---    0.05526   0.05836   0.06174   0.07495   0.07850
     Eigenvalues ---    0.07876   0.08183   0.09294   0.11111   0.11692
     Eigenvalues ---    0.11963   0.12260   0.13393   0.18421   0.19979
     Eigenvalues ---    0.22664   0.26624   0.27626   0.28280   0.29968
     Eigenvalues ---    0.33689   0.33839   0.34257   0.34362   0.34459
     Eigenvalues ---    0.34501   0.34538   0.34550   0.34724   0.35215
     Eigenvalues ---    0.40187   0.41643
 En-DIIS/RFO-DIIS IScMMF=        0 using points:     2    1
 RFO step:  Lambda=-2.85994846D-06.
 DidBck=F Rises=F RFO-DIIS coefs:    2.46162   -1.46162
 Iteration  1 RMS(Cart)=  0.02839073 RMS(Int)=  0.00040129
 Iteration  2 RMS(Cart)=  0.00048811 RMS(Int)=  0.00013221
 Iteration  3 RMS(Cart)=  0.00000005 RMS(Int)=  0.00013221
 Variable       Old X    -DE/DX   Delta X   Delta X   Delta X     New X
                                  (DIIS)     (GDIIS)  (Total)
    R1        2.91413  -0.00036  -0.00032  -0.00297  -0.00332   2.91081
    R2        2.68290   0.00008  -0.00017   0.00039   0.00029   2.68319
    R3        2.06036   0.00003  -0.00031   0.00028  -0.00003   2.06033
    R4        2.07818  -0.00006  -0.00025  -0.00035  -0.00059   2.07759
    R5        2.90891   0.00030  -0.00010   0.00280   0.00265   2.91156
    R6        2.06453  -0.00003  -0.00047  -0.00009  -0.00057   2.06396
    R7        2.06840   0.00004  -0.00059   0.00047  -0.00012   2.06828
    R8        2.89115   0.00002   0.00011   0.00002   0.00017   2.89132
    R9        2.06581   0.00003  -0.00018   0.00031   0.00013   2.06593
   R10        2.06409  -0.00001  -0.00005  -0.00009  -0.00014   2.06395
   R11        2.91427  -0.00030  -0.00015  -0.00252  -0.00269   2.91158
   R12        2.06466   0.00002  -0.00021   0.00018  -0.00003   2.06463
   R13        2.06878  -0.00003  -0.00019  -0.00017  -0.00036   2.06842
   R14        2.69318   0.00025  -0.00038   0.00161   0.00121   2.69439
   R15        2.06269   0.00003  -0.00050   0.00039  -0.00012   2.06257
   R16        2.07733   0.00001  -0.00065   0.00031  -0.00033   2.07699
    A1        1.93833  -0.00011  -0.00165  -0.00112  -0.00312   1.93522
    A2        1.94764   0.00002  -0.00038   0.00040   0.00020   1.94785
    A3        1.93358  -0.00004   0.00083  -0.00143  -0.00062   1.93295
    A4        1.85345   0.00010  -0.00063   0.00292   0.00238   1.85582
    A5        1.91311   0.00005   0.00163  -0.00015   0.00162   1.91473
    A6        1.87498  -0.00001   0.00025  -0.00043  -0.00022   1.87476
    A7        1.92313   0.00003  -0.00027   0.00055  -0.00024   1.92288
    A8        1.92791  -0.00007   0.00090  -0.00345  -0.00242   1.92550
    A9        1.90451  -0.00006  -0.00086  -0.00046  -0.00114   1.90337
   A10        1.91835   0.00001   0.00120  -0.00060   0.00077   1.91912
   A11        1.92414   0.00008  -0.00098   0.00368   0.00284   1.92698
   A12        1.86498   0.00001   0.00001   0.00028   0.00020   1.86519
   A13        1.91933   0.00010   0.00023   0.00100   0.00089   1.92022
   A14        1.91189  -0.00001   0.00006   0.00067   0.00074   1.91264
   A15        1.92860   0.00001   0.00007   0.00089   0.00115   1.92975
   A16        1.90411  -0.00007  -0.00110  -0.00112  -0.00210   1.90201
   A17        1.93513  -0.00004   0.00076  -0.00061   0.00023   1.93535
   A18        1.86379   0.00000  -0.00006  -0.00089  -0.00101   1.86279
   A19        1.91586  -0.00009   0.00010  -0.00068  -0.00086   1.91500
   A20        1.94284   0.00003  -0.00065   0.00129   0.00071   1.94356
   A21        1.90712   0.00008   0.00093   0.00100   0.00202   1.90914
   A22        1.91300   0.00000  -0.00033  -0.00098  -0.00114   1.91187
   A23        1.92579  -0.00001  -0.00002  -0.00053  -0.00056   1.92524
   A24        1.85861  -0.00002  -0.00003  -0.00009  -0.00016   1.85845
   A25        1.96402  -0.00002  -0.00013   0.00063   0.00002   1.96404
   A26        1.93669  -0.00014   0.00164  -0.00359  -0.00184   1.93485
   A27        1.93002   0.00002  -0.00149   0.00064  -0.00075   1.92928
   A28        1.83542   0.00007   0.00128  -0.00041   0.00103   1.83646
   A29        1.91048   0.00004  -0.00125   0.00297   0.00187   1.91236
   A30        1.88340   0.00002   0.00007  -0.00026  -0.00024   1.88316
   A31        1.96111   0.00018  -0.00035   0.00242   0.00172   1.96284
    D1       -0.47570   0.00004  -0.02991  -0.01591  -0.04582  -0.52152
    D2        1.64724   0.00002  -0.02800  -0.01858  -0.04661   1.60063
    D3       -2.59063  -0.00004  -0.02798  -0.02052  -0.04845  -2.63907
    D4       -2.54009  -0.00002  -0.02778  -0.01910  -0.04689  -2.58698
    D5       -0.41715  -0.00004  -0.02587  -0.02177  -0.04768  -0.46483
    D6        1.62816  -0.00011  -0.02585  -0.02371  -0.04951   1.57865
    D7        1.65474   0.00000  -0.02840  -0.01787  -0.04633   1.60840
    D8       -2.50551  -0.00002  -0.02649  -0.02053  -0.04712  -2.55263
    D9       -0.46020  -0.00008  -0.02647  -0.02247  -0.04896  -0.50915
   D10        1.20705  -0.00005   0.00707   0.00031   0.00714   1.21419
   D11       -2.95562  -0.00002   0.00526   0.00199   0.00707  -2.94855
   D12       -0.93524   0.00004   0.00601   0.00298   0.00890  -0.92634
   D13       -0.59949   0.00002   0.02542   0.01522   0.04063  -0.55886
   D14        1.49302  -0.00001   0.02425   0.01488   0.03906   1.53209
   D15       -2.74145   0.00000   0.02425   0.01472   0.03897  -2.70249
   D16       -2.72810   0.00009   0.02369   0.01957   0.04331  -2.68479
   D17       -0.63558   0.00006   0.02252   0.01923   0.04174  -0.59385
   D18        1.41312   0.00006   0.02253   0.01907   0.04164   1.45476
   D19        1.50368   0.00002   0.02355   0.01737   0.04088   1.54456
   D20       -2.68699  -0.00001   0.02237   0.01703   0.03931  -2.64768
   D21       -0.63828  -0.00001   0.02238   0.01687   0.03921  -0.59907
   D22        1.06009  -0.00002   0.00245   0.00101   0.00327   1.06336
   D23       -3.10189  -0.00005   0.00168   0.00017   0.00173  -3.10016
   D24       -1.05398   0.00000   0.00183   0.00145   0.00322  -1.05077
   D25       -1.03715  -0.00003   0.00292   0.00027   0.00312  -1.03403
   D26        1.08406  -0.00006   0.00215  -0.00057   0.00158   1.08564
   D27        3.13197  -0.00001   0.00230   0.00071   0.00306   3.13503
   D28       -3.08498   0.00004   0.00322   0.00240   0.00549  -3.07949
   D29       -0.96378   0.00000   0.00244   0.00156   0.00395  -0.95983
   D30        1.08413   0.00005   0.00260   0.00285   0.00543   1.08956
   D31       -0.40614  -0.00004  -0.02576  -0.01720  -0.04295  -0.44909
   D32        1.64511  -0.00005  -0.02313  -0.01971  -0.04286   1.60224
   D33       -2.54867  -0.00010  -0.02295  -0.02196  -0.04485  -2.59351
   D34       -2.54513  -0.00003  -0.02480  -0.01773  -0.04254  -2.58767
   D35       -0.49389  -0.00004  -0.02217  -0.02024  -0.04245  -0.53634
   D36        1.59553  -0.00009  -0.02199  -0.02249  -0.04444   1.55109
   D37        1.69666   0.00000  -0.02456  -0.01673  -0.04134   1.65532
   D38       -2.53528  -0.00001  -0.02193  -0.01924  -0.04125  -2.57654
   D39       -0.44587  -0.00006  -0.02175  -0.02149  -0.04324  -0.48911
   D40       -0.71162   0.00003   0.02303   0.01697   0.04002  -0.67160
   D41       -2.82194   0.00016   0.02027   0.02127   0.04159  -2.78035
   D42        1.44185   0.00008   0.02011   0.02039   0.04044   1.48229
         Item               Value     Threshold  Converged?
 Maximum Force            0.000363     0.000015     NO 
 RMS     Force            0.000085     0.000010     NO 
 Maximum Displacement     0.094500     0.000060     NO 
 RMS     Displacement     0.028391     0.000040     NO 
 Predicted change in Energy=-2.823091D-05
 GradGradGradGradGradGradGradGradGradGradGradGradGradGradGradGradGradGrad

                          Input orientation:                          
 ---------------------------------------------------------------------
 Center     Atomic      Atomic             Coordinates (Angstroms)
 Number     Number       Type             X           Y           Z
 ---------------------------------------------------------------------
      1          6           0        1.314884   -0.044880   -0.406896
      2          6           0        0.738752    1.325103   -0.002107
      3          6           0       -0.727518    1.173447    0.446111
      4          6           0       -1.397608    0.037633   -0.329696
      5          6           0       -0.665227   -1.288063   -0.046786
      6          8           0        0.696393   -1.090944    0.327469
      7          1           0       -1.120966   -1.811784    0.795423
      8          1           0       -0.714124   -1.950176   -0.922701
      9          1           0       -2.451306   -0.061890   -0.058593
     10          1           0       -1.372478    0.264578   -1.400176
     11          1           0       -0.762275    0.943250    1.514280
     12          1           0       -1.269670    2.111599    0.308869
     13          1           0        1.331640    1.762744    0.804032
     14          1           0        0.808575    2.008079   -0.854501
     15          1           0        2.382164   -0.110298   -0.193954
     16          1           0        1.182946   -0.219995   -1.484225
 ---------------------------------------------------------------------
                    Distance matrix (angstroms):
                    1          2          3          4          5
     1  C    0.000000
     2  C    1.540336   0.000000
     3  C    2.526528   1.540729   0.000000
     4  C    2.714844   2.515737   1.530023   0.000000
     5  C    2.365591   2.966781   2.511146   1.540743   0.000000
     6  O    1.419885   2.438791   2.677511   2.467873   1.425809
     7  H    3.240506   3.732916   3.031241   2.182376   1.091465
     8  H    2.830739   3.699432   3.410402   2.184076   1.099096
     9  H    3.782299   3.478995   2.179960   1.092557   2.166499
    10  H    2.881715   2.745287   2.156569   1.094561   2.177743
    11  H    2.996982   2.167562   1.093244   2.150358   2.724904
    12  H    3.441313   2.179229   1.092196   2.173814   3.471245
    13  H    2.175806   1.092202   2.171522   3.422009   3.744168
    14  H    2.161328   1.094489   2.178941   3.004218   3.699871
    15  H    1.090280   2.190429   3.424588   3.785100   3.270379
    16  H    1.099414   2.186621   3.052499   2.838762   2.573470
                    6          7          8          9         10
     6  O    0.000000
     7  H    2.010320   0.000000
     8  H    2.071416   1.771051   0.000000
     9  H    3.334068   2.358236   2.707417   0.000000
    10  H    3.017023   3.032357   2.359354   1.752226   0.000000
    11  H    2.770231   2.869778   3.783267   2.517352   3.054013
    12  H    3.757929   3.956232   4.280585   2.501068   2.518509
    13  H    2.962126   4.335043   4.577394   4.287667   3.796747
    14  H    3.318672   4.586581   4.241585   3.942723   2.845092
    15  H    2.018755   4.018189   3.674673   4.835607   3.961419
    16  H    2.068218   3.610900   2.628253   3.907072   2.602320
                   11         12         13         14         15
    11  H    0.000000
    12  H    1.753711   0.000000
    13  H    2.358071   2.670898   0.000000
    14  H    3.035219   2.383956   1.756280   0.000000
    15  H    3.730351   4.304130   2.368093   2.720298   0.000000
    16  H    3.758731   3.829731   3.031417   2.345425   1.764924
                   16
    16  H    0.000000
 Symmetry turned off by external request.
 Stoichiometry    C5H10O
 Framework group  C1[X(C5H10O)]
 Deg. of freedom    42
 Full point group                 C1      NOp   1
 Rotational constants (GHZ):      4.6770022      4.4437666      2.6832433
 Standard basis: 6-311+G(2df,p) (5D, 7F)
 Integral buffers will be    131072 words long.
 Raffenetti 2 integral format.
 Two-electron integral symmetry is turned off.
   264 basis functions,   392 primitive gaussians,   294 cartesian basis functions
    24 alpha electrons       24 beta electrons
       nuclear repulsion energy       260.1924729173 Hartrees.
 NAtoms=   16 NActive=   16 NUniq=   16 SFac= 1.00D+00 NAtFMM=   60 NAOKFM=F Big=F
 One-electron integrals computed using PRISM.
 NBasis=   264 RedAO= T  NBF=   264
 NBsUse=   264 1.00D-06 NBFU=   264
 Initial guess read from the read-write file.
 B after Tr=     0.000000    0.000000    0.000000
         Rot=    1.000000    0.000000    0.000000    0.000000 Ang=   0.00 deg.
 Harris functional with IExCor=  402 diagonalized for initial guess.
 ExpMin= 4.38D-02 ExpMax= 8.59D+03 ExpMxC= 1.30D+03 IAcc=3 IRadAn=         5 AccDes= 0.00D+00
 HarFok:  IExCor=  402 AccDes= 0.00D+00 IRadAn=         5 IDoV= 1
 ScaDFX=  1.000000  1.000000  1.000000  1.000000
 FoFCou: FMM=F IPFlag=           0 FMFlag=      100000 FMFlg1=           0
         NFxFlg=           0 DoJE=T BraDBF=F KetDBF=T FulRan=T
         Omega=  0.000000  0.000000  1.000000  0.000000  0.000000 ICntrl=     500 IOpCl=  0
         NMat0=    1 NMatS0=    1 NMatT0=    0 NMatD0=    1 NMtDS0=    0 NMtDT0=    0
         I1Cent=           4 NGrid=           0.
 Symmetry not used in FoFCou.
 Requested convergence on RMS density matrix=1.00D-08 within  64 cycles.
 Requested convergence on MAX density matrix=1.00D-06.
 Requested convergence on             energy=1.00D-06.
 No special actions if energy rises.
 Keep R1 ints in memory in canonical form, NReq=953761572.
 SCF Done:  E(RB3LYP) =  -271.852391011     A.U. after    9 cycles
             Convg  =    0.4172D-08             -V/T =  2.0045
 QCSCF skips out because SCF is already converged.
 Calling FoFJK, ICntrl=      2127 FMM=F ISym2X=0 I1Cent= 0 IOpClX= 0 NMat=1 NMatS=1 NMatT=0.
 -------------------------------------------------------------------
 Center     Atomic                   Forces (Hartrees/Bohr)
 Number     Number              X              Y              Z
 -------------------------------------------------------------------
      1        6          -0.000139303    0.000431503    0.000372228
      2        6           0.000105617   -0.000284052   -0.000441019
      3        6          -0.000179437   -0.000005916    0.000043674
      4        6           0.000119263   -0.000167370    0.000250279
      5        6          -0.000310341    0.000389072   -0.000370850
      6        8           0.000287908   -0.000210069   -0.000151790
      7        1          -0.000126594    0.000007124    0.000231265
      8        1           0.000062446   -0.000144270   -0.000004400
      9        1          -0.000053599   -0.000101642   -0.000008867
     10        1          -0.000045670    0.000073925   -0.000026668
     11        1           0.000042822    0.000030030    0.000058286
     12        1          -0.000027064   -0.000006001   -0.000007670
     13        1           0.000034203   -0.000013704    0.000171608
     14        1           0.000083817    0.000080483   -0.000082035
     15        1           0.000057961   -0.000027330    0.000015329
     16        1           0.000087970   -0.000051784   -0.000049369
 -------------------------------------------------------------------
 Cartesian Forces:  Max     0.000441019 RMS     0.000176530

 GradGradGradGradGradGradGradGradGradGradGradGradGradGradGradGradGradGrad
 Berny optimization.
 Using GEDIIS/GDIIS optimizer.
 Internal  Forces:  Max     0.000270568 RMS     0.000080891
 Search for a local minimum.
 Step number   3 out of a maximum of   99
 All quantities printed in internal units (Hartrees-Bohrs-Radians)
 Mixed Optimization -- En-DIIS/RFO-DIIS
 Swaping is turned off.
 Update second derivatives using D2CorX and points    1    2    3
 DE= -2.88D-05 DEPred=-2.82D-05 R= 1.02D+00
 SS=  1.41D+00  RLast= 2.39D-01 DXNew= 5.0454D-01 7.1639D-01
 Trust test= 1.02D+00 RLast= 2.39D-01 DXMaxT set to 5.05D-01
 ITU=  1  1  0
     Eigenvalues ---    0.00091   0.00510   0.01362   0.02592   0.03147
     Eigenvalues ---    0.04095   0.04681   0.04771   0.04961   0.05290
     Eigenvalues ---    0.05526   0.05851   0.06209   0.07506   0.07843
     Eigenvalues ---    0.07890   0.08180   0.09304   0.11095   0.11712
     Eigenvalues ---    0.11990   0.12364   0.13407   0.18437   0.20003
     Eigenvalues ---    0.22615   0.26672   0.27604   0.28251   0.29915
     Eigenvalues ---    0.33703   0.33841   0.34263   0.34362   0.34465
     Eigenvalues ---    0.34511   0.34539   0.34550   0.34744   0.35473
     Eigenvalues ---    0.40170   0.41951
 En-DIIS/RFO-DIIS IScMMF=        0 using points:     3    2    1
 RFO step:  Lambda=-1.43613499D-06.
 DidBck=F Rises=F RFO-DIIS coefs:    1.11137   -0.47349    0.36213
 Iteration  1 RMS(Cart)=  0.00187856 RMS(Int)=  0.00002712
 Iteration  2 RMS(Cart)=  0.00000303 RMS(Int)=  0.00002700
 Iteration  3 RMS(Cart)=  0.00000000 RMS(Int)=  0.00002700
 Variable       Old X    -DE/DX   Delta X   Delta X   Delta X     New X
                                  (DIIS)     (GDIIS)  (Total)
    R1        2.91081  -0.00024  -0.00029  -0.00045  -0.00073   2.91008
    R2        2.68319   0.00003   0.00007   0.00002   0.00008   2.68327
    R3        2.06033   0.00006   0.00007   0.00004   0.00012   2.06045
    R4        2.07759   0.00005  -0.00001   0.00014   0.00013   2.07772
    R5        2.91156   0.00026   0.00032   0.00035   0.00069   2.91224
    R6        2.06396   0.00014   0.00005   0.00031   0.00037   2.06433
    R7        2.06828   0.00012   0.00013   0.00011   0.00024   2.06853
    R8        2.89132   0.00000  -0.00001  -0.00004  -0.00006   2.89127
    R9        2.06593   0.00005   0.00006   0.00005   0.00010   2.06604
   R10        2.06395   0.00001   0.00000   0.00003   0.00003   2.06398
   R11        2.91158  -0.00022  -0.00026  -0.00048  -0.00073   2.91085
   R12        2.06463   0.00006   0.00005   0.00009   0.00014   2.06477
   R13        2.06842   0.00004   0.00001   0.00010   0.00011   2.06853
   R14        2.69439   0.00027   0.00023   0.00035   0.00059   2.69498
   R15        2.06257   0.00023   0.00011   0.00049   0.00060   2.06317
   R16        2.07699   0.00009   0.00012   0.00002   0.00015   2.07714
    A1        1.93522   0.00002   0.00006   0.00100   0.00113   1.93635
    A2        1.94785   0.00005   0.00012  -0.00017  -0.00009   1.94775
    A3        1.93295   0.00001  -0.00027   0.00065   0.00038   1.93333
    A4        1.85582  -0.00002   0.00042  -0.00126  -0.00086   1.85497
    A5        1.91473  -0.00004  -0.00022   0.00028   0.00003   1.91475
    A6        1.87476  -0.00004  -0.00008  -0.00061  -0.00069   1.87407
    A7        1.92288   0.00002   0.00004   0.00077   0.00092   1.92381
    A8        1.92550  -0.00002  -0.00049  -0.00037  -0.00089   1.92460
    A9        1.90337  -0.00002   0.00009   0.00030   0.00034   1.90371
   A10        1.91912  -0.00010  -0.00021  -0.00124  -0.00149   1.91764
   A11        1.92698   0.00010   0.00056   0.00048   0.00101   1.92799
   A12        1.86519   0.00002   0.00002   0.00005   0.00009   1.86527
   A13        1.92022   0.00003   0.00004   0.00041   0.00052   1.92075
   A14        1.91264  -0.00009   0.00007  -0.00079  -0.00072   1.91192
   A15        1.92975   0.00005   0.00011   0.00006   0.00013   1.92988
   A16        1.90201   0.00004   0.00004   0.00026   0.00027   1.90228
   A17        1.93535  -0.00004  -0.00016   0.00003  -0.00015   1.93521
   A18        1.86279   0.00000  -0.00010  -0.00001  -0.00009   1.86269
   A19        1.91500   0.00001  -0.00012   0.00067   0.00060   1.91561
   A20        1.94356   0.00008   0.00024   0.00018   0.00041   1.94396
   A21        1.90914  -0.00006   0.00000  -0.00037  -0.00039   1.90875
   A22        1.91187  -0.00005  -0.00005  -0.00080  -0.00088   1.91099
   A23        1.92524   0.00004  -0.00006   0.00065   0.00060   1.92584
   A24        1.85845  -0.00001  -0.00001  -0.00036  -0.00036   1.85809
   A25        1.96404   0.00002   0.00003   0.00094   0.00107   1.96511
   A26        1.93485  -0.00012  -0.00061  -0.00069  -0.00132   1.93353
   A27        1.92928   0.00013   0.00029   0.00101   0.00127   1.93055
   A28        1.83646   0.00000  -0.00020  -0.00050  -0.00073   1.83572
   A29        1.91236  -0.00006   0.00052  -0.00100  -0.00051   1.91184
   A30        1.88316   0.00001  -0.00004   0.00013   0.00009   1.88325
   A31        1.96284   0.00005   0.00028   0.00089   0.00123   1.96407
    D1       -0.52152   0.00012   0.00231  -0.00156   0.00075  -0.52077
    D2        1.60063   0.00000   0.00175  -0.00285  -0.00109   1.59954
    D3       -2.63907   0.00000   0.00154  -0.00283  -0.00130  -2.64037
    D4       -2.58698   0.00009   0.00166  -0.00052   0.00114  -2.58584
    D5       -0.46483  -0.00003   0.00110  -0.00181  -0.00070  -0.46553
    D6        1.57865  -0.00003   0.00089  -0.00179  -0.00091   1.57774
    D7        1.60840   0.00010   0.00188  -0.00007   0.00182   1.61022
    D8       -2.55263  -0.00002   0.00131  -0.00136  -0.00002  -2.55266
    D9       -0.50915  -0.00002   0.00111  -0.00134  -0.00023  -0.50938
   D10        1.21419  -0.00011  -0.00096  -0.00298  -0.00389   1.21030
   D11       -2.94855  -0.00005  -0.00051  -0.00341  -0.00388  -2.95243
   D12       -0.92634  -0.00012  -0.00050  -0.00466  -0.00514  -0.93148
   D13       -0.55886  -0.00005  -0.00177   0.00337   0.00161  -0.55725
   D14        1.53209  -0.00003  -0.00166   0.00346   0.00182   1.53390
   D15       -2.70249  -0.00005  -0.00167   0.00301   0.00134  -2.70114
   D16       -2.68479   0.00003  -0.00105   0.00415   0.00309  -2.68170
   D17       -0.59385   0.00004  -0.00093   0.00423   0.00330  -0.59054
   D18        1.45476   0.00002  -0.00094   0.00378   0.00283   1.45759
   D19        1.54456   0.00001  -0.00128   0.00455   0.00328   1.54784
   D20       -2.64768   0.00002  -0.00116   0.00464   0.00349  -2.64419
   D21       -0.59907   0.00000  -0.00118   0.00419   0.00302  -0.59605
   D22        1.06336  -0.00006  -0.00024  -0.00176  -0.00196   1.06140
   D23       -3.10016  -0.00007  -0.00022  -0.00219  -0.00239  -3.10255
   D24       -1.05077  -0.00008  -0.00010  -0.00276  -0.00283  -1.05360
   D25       -1.03403   0.00000  -0.00038  -0.00121  -0.00157  -1.03559
   D26        1.08564  -0.00001  -0.00036  -0.00164  -0.00200   1.08364
   D27        3.13503  -0.00001  -0.00023  -0.00220  -0.00244   3.13259
   D28       -3.07949   0.00000  -0.00019  -0.00137  -0.00153  -3.08102
   D29       -0.95983  -0.00001  -0.00017  -0.00181  -0.00196  -0.96179
   D30        1.08956  -0.00002  -0.00004  -0.00237  -0.00241   1.08716
   D31       -0.44909   0.00007   0.00160  -0.00254  -0.00094  -0.45002
   D32        1.60224   0.00002   0.00096  -0.00302  -0.00206   1.60019
   D33       -2.59351   0.00004   0.00069  -0.00265  -0.00197  -2.59549
   D34       -2.58767   0.00000   0.00141  -0.00268  -0.00127  -2.58893
   D35       -0.53634  -0.00005   0.00077  -0.00316  -0.00238  -0.53872
   D36        1.55109  -0.00003   0.00050  -0.00279  -0.00230   1.54879
   D37        1.65532   0.00003   0.00148  -0.00215  -0.00066   1.65466
   D38       -2.57654  -0.00003   0.00084  -0.00263  -0.00178  -2.57831
   D39       -0.48911   0.00000   0.00057  -0.00226  -0.00169  -0.49080
   D40       -0.67160   0.00000  -0.00125   0.00470   0.00346  -0.66814
   D41       -2.78035   0.00012  -0.00039   0.00534   0.00494  -2.77541
   D42        1.48229   0.00013  -0.00048   0.00593   0.00546   1.48775
         Item               Value     Threshold  Converged?
 Maximum Force            0.000271     0.000015     NO 
 RMS     Force            0.000081     0.000010     NO 
 Maximum Displacement     0.006347     0.000060     NO 
 RMS     Displacement     0.001879     0.000040     NO 
 Predicted change in Energy=-2.456924D-06
 GradGradGradGradGradGradGradGradGradGradGradGradGradGradGradGradGradGrad

                          Input orientation:                          
 ---------------------------------------------------------------------
 Center     Atomic      Atomic             Coordinates (Angstroms)
 Number     Number       Type             X           Y           Z
 ---------------------------------------------------------------------
      1          6           0        1.315643   -0.044355   -0.407527
      2          6           0        0.738924    1.324796   -0.002239
      3          6           0       -0.728002    1.173678    0.445264
      4          6           0       -1.398308    0.037213   -0.329340
      5          6           0       -0.665636   -1.288074   -0.047379
      6          8           0        0.697234   -1.092349    0.324233
      7          1           0       -1.120094   -1.809914    0.797101
      8          1           0       -0.716541   -1.952020   -0.921888
      9          1           0       -2.451646   -0.063428   -0.056966
     10          1           0       -1.375100    0.264567   -1.399835
     11          1           0       -0.762712    0.944876    1.513790
     12          1           0       -1.270066    2.111736    0.306930
     13          1           0        1.330712    1.760520    0.806007
     14          1           0        0.810842    2.009367   -0.853341
     15          1           0        2.382629   -0.109880   -0.192832
     16          1           0        1.186305   -0.218330   -1.485428
 ---------------------------------------------------------------------
                    Distance matrix (angstroms):
                    1          2          3          4          5
     1  C    0.000000
     2  C    1.539948   0.000000
     3  C    2.527319   1.541092   0.000000
     4  C    2.716303   2.516471   1.529992   0.000000
     5  C    2.366857   2.966802   2.511336   1.540356   0.000000
     6  O    1.419927   2.439448   2.679706   2.468676   1.426120
     7  H    3.240547   3.731125   3.029744   2.181318   1.091785
     8  H    2.834347   3.701574   3.411631   2.184712   1.099174
     9  H    3.783613   3.479928   2.180279   1.092628   2.165567
    10  H    2.884476   2.747081   2.156295   1.094618   2.177882
    11  H    2.998266   2.167392   1.093299   2.150573   2.726304
    12  H    3.441667   2.179656   1.092210   2.173691   3.471251
    13  H    2.174964   1.092396   2.170903   3.421455   3.742672
    14  H    2.161331   1.094617   2.180090   3.007377   3.701713
    15  H    1.090342   2.190066   3.425012   3.786259   3.271271
    16  H    1.099484   2.186604   3.054477   2.842898   2.577213
                    6          7          8          9         10
     6  O    0.000000
     7  H    2.010270   0.000000
     8  H    2.071379   1.771432   0.000000
     9  H    3.334581   2.356411   2.706558   0.000000
    10  H    3.017979   3.032330   2.361226   1.752093   0.000000
    11  H    2.774306   2.868839   3.785058   2.517230   3.054021
    12  H    3.759884   3.955010   4.281413   2.501978   2.517164
    13  H    2.961800   4.330650   4.578189   4.286927   3.798030
    14  H    3.319673   4.586871   4.246197   3.946457   2.849793
    15  H    2.018206   4.017356   3.678295   4.836407   3.964541
    16  H    2.068325   3.614215   2.635162   3.911417   2.607932
                   11         12         13         14         15
    11  H    0.000000
    12  H    1.753705   0.000000
    13  H    2.355558   2.671419   0.000000
    14  H    3.035214   2.384720   1.756596   0.000000
    15  H    3.730715   4.304361   2.366982   2.719926   0.000000
    16  H    3.761253   3.830864   3.031068   2.345877   1.764584
                   16
    16  H    0.000000
 Symmetry turned off by external request.
 Stoichiometry    C5H10O
 Framework group  C1[X(C5H10O)]
 Deg. of freedom    42
 Full point group                 C1      NOp   1
 Rotational constants (GHZ):      4.6739757      4.4436719      2.6809691
 Standard basis: 6-311+G(2df,p) (5D, 7F)
 Integral buffers will be    131072 words long.
 Raffenetti 2 integral format.
 Two-electron integral symmetry is turned off.
   264 basis functions,   392 primitive gaussians,   294 cartesian basis functions
    24 alpha electrons       24 beta electrons
       nuclear repulsion energy       260.1470955258 Hartrees.
 NAtoms=   16 NActive=   16 NUniq=   16 SFac= 1.00D+00 NAtFMM=   60 NAOKFM=F Big=F
 One-electron integrals computed using PRISM.
 NBasis=   264 RedAO= T  NBF=   264
 NBsUse=   264 1.00D-06 NBFU=   264
 Initial guess read from the read-write file.
 B after Tr=     0.000000    0.000000    0.000000
         Rot=    1.000000    0.000000    0.000000    0.000000 Ang=   0.00 deg.
 Requested convergence on RMS density matrix=1.00D-08 within  64 cycles.
 Requested convergence on MAX density matrix=1.00D-06.
 Requested convergence on             energy=1.00D-06.
 No special actions if energy rises.
 Keep R1 ints in memory in canonical form, NReq=953761572.
 SCF Done:  E(RB3LYP) =  -271.852394737     A.U. after    7 cycles
             Convg  =    0.9447D-08             -V/T =  2.0045
 QCSCF skips out because SCF is already converged.
 Calling FoFJK, ICntrl=      2127 FMM=F ISym2X=0 I1Cent= 0 IOpClX= 0 NMat=1 NMatS=1 NMatT=0.
 -------------------------------------------------------------------
 Center     Atomic                   Forces (Hartrees/Bohr)
 Number     Number              X              Y              Z
 -------------------------------------------------------------------
      1        6          -0.000071032    0.000152785    0.000162494
      2        6           0.000068016   -0.000103537   -0.000136830
      3        6          -0.000074762   -0.000059422    0.000045024
      4        6           0.000111376   -0.000076241    0.000050994
      5        6          -0.000183741    0.000137318   -0.000081532
      6        8           0.000136048   -0.000021354   -0.000089375
      7        1          -0.000045653    0.000009708    0.000048156
      8        1          -0.000002417   -0.000031119    0.000016335
      9        1          -0.000017653   -0.000033214    0.000000249
     10        1          -0.000004795    0.000024141   -0.000020691
     11        1           0.000012238    0.000013130    0.000024540
     12        1          -0.000004833   -0.000015076   -0.000011597
     13        1           0.000007471    0.000012437    0.000031939
     14        1           0.000021606   -0.000002501   -0.000012431
     15        1           0.000033277    0.000016713    0.000006534
     16        1           0.000014853   -0.000023769   -0.000033808
 -------------------------------------------------------------------
 Cartesian Forces:  Max     0.000183741 RMS     0.000067970

 GradGradGradGradGradGradGradGradGradGradGradGradGradGradGradGradGradGrad
 Berny optimization.
 Using GEDIIS/GDIIS optimizer.
 Internal  Forces:  Max     0.000151628 RMS     0.000032591
 Search for a local minimum.
 Step number   4 out of a maximum of   99
 All quantities printed in internal units (Hartrees-Bohrs-Radians)
 Mixed Optimization -- En-DIIS/RFO-DIIS
 Swaping is turned off.
 Update second derivatives using D2CorX and points    1    2    3    4
 DE= -3.73D-06 DEPred=-2.46D-06 R= 1.52D+00
 SS=  1.41D+00  RLast= 1.70D-02 DXNew= 8.4853D-01 5.1121D-02
 Trust test= 1.52D+00 RLast= 1.70D-02 DXMaxT set to 5.05D-01
 ITU=  1  1  1  0
     Eigenvalues ---    0.00089   0.00518   0.01094   0.02584   0.02941
     Eigenvalues ---    0.04113   0.04718   0.04780   0.04958   0.05129
     Eigenvalues ---    0.05527   0.05862   0.06177   0.07501   0.07848
     Eigenvalues ---    0.07879   0.08186   0.09290   0.11124   0.11583
     Eigenvalues ---    0.11902   0.12083   0.13354   0.18417   0.20069
     Eigenvalues ---    0.22616   0.26670   0.27618   0.27878   0.28733
     Eigenvalues ---    0.33626   0.33844   0.34211   0.34340   0.34460
     Eigenvalues ---    0.34506   0.34539   0.34553   0.34773   0.34927
     Eigenvalues ---    0.40077   0.40291
 En-DIIS/RFO-DIIS IScMMF=        0 using points:     4    3    2    1
 RFO step:  Lambda=-2.53928278D-07.
 DidBck=F Rises=F RFO-DIIS coefs:    1.36357   -0.27663   -0.18337    0.09643
 Iteration  1 RMS(Cart)=  0.00189440 RMS(Int)=  0.00000290
 Iteration  2 RMS(Cart)=  0.00000312 RMS(Int)=  0.00000129
 Iteration  3 RMS(Cart)=  0.00000000 RMS(Int)=  0.00000129
 Variable       Old X    -DE/DX   Delta X   Delta X   Delta X     New X
                                  (DIIS)     (GDIIS)  (Total)
    R1        2.91008  -0.00013  -0.00053  -0.00022  -0.00075   2.90933
    R2        2.68327  -0.00001   0.00007  -0.00003   0.00003   2.68330
    R3        2.06045   0.00003   0.00006   0.00006   0.00012   2.06056
    R4        2.07772   0.00004   0.00001   0.00013   0.00014   2.07787
    R5        2.91224   0.00008   0.00049  -0.00006   0.00043   2.91267
[...]
 ! D16   D(13,2,3,4)          -153.5914         -DE/DX =    0.0                 !
 ! D17   D(13,2,3,11)          -33.7649         -DE/DX =    0.0                 !
 ! D18   D(13,2,3,12)           83.5898         -DE/DX =    0.0                 !
 ! D19   D(14,2,3,4)            88.7492         -DE/DX =    0.0                 !
 ! D20   D(14,2,3,11)         -151.4244         -DE/DX =    0.0                 !
 ! D21   D(14,2,3,12)          -34.0697         -DE/DX =    0.0                 !
 ! D22   D(2,3,4,5)             60.9138         -DE/DX =    0.0                 !
 ! D23   D(2,3,4,9)           -177.6921         -DE/DX =    0.0                 !
 ! D24   D(2,3,4,10)           -60.2916         -DE/DX =    0.0                 !
 ! D25   D(11,3,4,5)           -59.2344         -DE/DX =    0.0                 !
 ! D26   D(11,3,4,9)            62.1598         -DE/DX =    0.0                 !
 ! D27   D(11,3,4,10)          179.5603         -DE/DX =    0.0                 !
 ! D28   D(12,3,4,5)          -176.4483         -DE/DX =    0.0                 !
 ! D29   D(12,3,4,9)           -55.0541         -DE/DX =    0.0                 !
 ! D30   D(12,3,4,10)           62.3464         -DE/DX =    0.0                 !
 ! D31   D(3,4,5,6)            -26.0894         -DE/DX =    0.0                 !
 ! D32   D(3,4,5,7)             91.3519         -DE/DX =    0.0                 !
 ! D33   D(3,4,5,8)           -149.0531         -DE/DX =    0.0                 !
 ! D34   D(9,4,5,6)           -148.6458         -DE/DX =    0.0                 !
 ! D35   D(9,4,5,7)            -31.2046         -DE/DX =    0.0                 !
 ! D36   D(9,4,5,8)             88.3905         -DE/DX =    0.0                 !
 ! D37   D(10,4,5,6)            94.5039         -DE/DX =    0.0                 !
 ! D38   D(10,4,5,7)          -148.0549         -DE/DX =    0.0                 !
 ! D39   D(10,4,5,8)           -28.4598         -DE/DX =    0.0                 !
 ! D40   D(4,5,6,1)            -37.9373         -DE/DX =    0.0                 !
 ! D41   D(7,5,6,1)           -158.6272         -DE/DX =    0.0                 !
 ! D42   D(8,5,6,1)             85.6453         -DE/DX =    0.0                 !
 --------------------------------------------------------------------------------
 GradGradGradGradGradGradGradGradGradGradGradGradGradGradGradGradGradGrad

 1\1\GINC-NODE014\Freq\RB3LYP\6-311+G(2df,p)\C5H10O1\HGO357\27-Dec-2012
 \0\\#N Geom=AllCheck Guess=TCheck SCRF=Check GenChk RB3LYP/6-311+G(2df
 ,p) Freq\\from irc\\0,1\C,1.3157233441,-0.0436259928,-0.4087763557\C,0
 .7389204794,1.3245791276,-0.0015463\C,-0.7283345897,1.1730817199,0.445
 3885365\C,-1.3976019911,0.0369211191,-0.330287284\C,-0.6662581688,-1.2
 880189508,-0.0466718092\O,0.6982554328,-1.0935049416,0.3210007492\H,-1
 .119509809,-1.806129617,0.8009047442\H,-0.7205248032,-1.9550476461,-0.
 9185985259\H,-2.4514874452,-0.0638944872,-0.0598904955\H,-1.372521206,
 0.2644332754,-1.4007609761\H,-0.7634464823,0.9439529921,1.5138724538\H
 ,-1.2704860314,2.1110636883,0.3070236314\H,1.3303873137,1.7590328987,0
 .8076971654\H,0.8113903219,2.0104438151,-0.8515696583\H,2.3827936772,-
 0.1090003765,-0.1941481736\H,1.1868829576,-0.2158836242,-1.4870867021\
 \Version=EM64L-G09RevC.01\HF=-271.8523955\RMSD=3.856e-09\RMSF=1.596e-0
 6\ZeroPoint=0.1455975\Thermal=0.1513661\Dipole=-0.3227025,0.4105852,-0
 .3162244\DipoleDeriv=0.4097638,0.1003799,-0.0567505,0.1664265,0.595397
 7,-0.1054506,-0.1901604,-0.1054471,0.4411248,0.027342,0.0692662,0.0208
 533,0.0245404,0.0206914,-0.0236753,0.0733208,-0.078968,0.1337378,0.086
 1204,-0.0105196,0.0003946,-0.0150277,0.0892702,-0.0345816,-0.0215328,-
 0.0026681,0.1277232,0.0421165,-0.0007419,-0.0345153,0.0531471,-0.03994
 43,-0.0232073,-0.0141296,-0.0476534,0.1156435,0.7240528,0.1651506,0.06
 19725,0.0691692,0.4211793,0.0803177,0.1003566,0.1184538,0.3658573,-0.9
 207961,-0.2385566,-0.0066094,-0.1927696,-0.7748397,0.1140904,0.0391413
 ,0.0969799,-0.4764296,-0.0348706,-0.052621,0.0499247,-0.0360786,-0.019
 2295,0.0497681,0.0715992,0.108039,-0.0746356,-0.0171696,0.0065796,0.01
 99191,-0.037112,-0.1048079,-0.09905,-0.0710048,-0.1751424,-0.1247045,-
 0.1755606,-0.0283435,0.018283,-0.0389238,0.0259977,0.0014458,0.0569021
 ,0.0011895,0.0576944,0.0542977,-0.0024033,0.0282474,0.0092706,-0.01234
 52,0.0326456,-0.0250038,0.0347647,-0.1599874,0.0057196,-0.0242134,-0.0
 018569,-0.0320291,0.03492,0.0557166,0.0273791,0.0078503,-0.1502272,-0.
 0339368,0.0878565,0.0109978,0.096174,-0.141529,-0.0105675,-0.0122026,0
 .0142961,0.056089,-0.0555793,-0.0703395,-0.0659897,-0.0312142,-0.00854
 34,-0.0591641,-0.0875279,-0.0982452,-0.0617876,0.0236402,0.0105053,0.0
 130592,-0.0314613,-0.0581755,0.0774359,0.0504274,0.1295136,-0.0930564,
 -0.1705913,0.0028352,0.0038795,0.0176913,0.016122,-0.0043698,-0.047525
 2,0.0096323,0.0570823,0.0354513,-0.0148346,-0.0618093,-0.0218027,-0.04
 4164,-0.0513538,0.0499607,-0.012595,-0.2141239\Polar=65.2815515,2.8143
 866,64.188842,-0.9916654,1.293626,56.8395951\PG=C01 [X(C5H10O1)]\NImag
 =0\\0.60656188,-0.00472829,0.40928310,0.05118733,0.02331799,0.53863388
 ,-0.09384373,0.03025502,0.00927255,0.45803940,0.02840844,-0.13743399,-
 0.03177522,0.04400812,0.49817504,0.01186647,-0.03246343,-0.08986802,0.
 04612738,-0.02037729,0.57494363,-0.01928526,0.01108969,0.00372812,-0.1
 5593833,-0.01011810,0.02668283,0.45224396,0.03096762,0.00242377,-0.008
 33221,-0.00924709,-0.07872315,0.00183048,-0.06482532,0.54231385,0.0080
 6865,0.00038741,-0.00235921,0.02839138,0.00333506,-0.08663905,0.002099
 96,-0.03477233,0.54990964,-0.00033972,0.00397188,-0.00105477,-0.020998
 33,-0.02469409,-0.01856731,-0.09511668,-0.02973270,-0.02165957,0.56431
 958,0.00156126,0.00134324,0.00042769,-0.00905842,-0.00166677,-0.001735
 31,-0.02969128,-0.13043447,-0.03576441,0.01941204,0.42624524,0.0003771
 3,-0.00075443,0.00331758,0.00019321,0.00612984,0.00606864,-0.02305701,
 -0.03645919,-0.10851614,-0.02925976,-0.02919837,0.55291294,-0.03377087
 ,-0.01940035,0.00719888,0.00077623,0.00355618,-0.00189466,0.01143808,-
 0.00680665,0.00683490,-0.08991786,0.03015285,-0.00700437,0.42908539,-0
 .03200254,-0.00600521,-0.00807032,0.00038724,-0.00059855,0.00038867,0.
 00995607,-0.03315478,-0.00078331,0.02605852,-0.15006167,0.01796521,0.0
 4757520,0.52089105,0.02232930,0.00086649,0.00298533,-0.00061774,0.0011
 7278,0.00034464,0.01037822,-0.01733790,0.00399983,-0.00526763,0.016511
 81,-0.08618821,-0.05275820,-0.00757755,0.59329282,-0.10258958,-0.05058
 068,0.02759697,0.00633308,-0.00067608,-0.00210788,-0.00258061,-0.00387
 426,-0.00113504,-0.03449363,0.00390442,-0.00554763,-0.17721366,-0.0072
 7668,-0.05003880,0.38043481,-0.02381042,-0.13902184,0.06673342,-0.0129
 1471,-0.04033116,0.02670668,-0.00467644,0.00384842,-0.00034967,0.02633
 060,0.00703136,0.00712042,-0.03381561,-0.08315386,0.00140478,0.1054682
 9,0.27484020,0.00544013,0.05738383,-0.11434248,-0.00087643,0.00756881,
 0.00419075,0.00190875,-0.00125105,-0.00033623,-0.01094177,-0.00209696,
 0.00059309,-0.03149126,0.01572726,-0.08913241,0.02478613,-0.10886379,0
 .20630556,-0.00557095,0.00314129,-0.00155879,0.00004161,0.00046805,0.0
 0006096,-0.00042165,-0.00027418,-0.00053683,0.00474046,0.00877717,-0.0
 1279311,-0.08111304,-0.04396874,0.07697855,-0.02980168,-0.02435009,0.0
 2268308,0.10944966,-0.00123858,0.00128394,-0.00046514,0.00004358,0.000
 32514,0.00012678,0.00033502,0.00064636,0.00105680,-0.00831835,-0.01269
 840,0.02339044,-0.04638782,-0.10609495,0.09071473,-0.00799999,-0.00255
 184,0.00378074,0.05397218,0.11241179,-0.00225031,-0.00149605,0.0010535
 9,-0.00006447,0.00012803,0.00001685,-0.00001883,0.00014643,0.00045705,
 -0.00004961,0.00177294,-0.00379507,0.08552143,0.09457056,-0.21508655,-
 0.00492262,-0.00526313,0.01110511,-0.08645800,-0.10254300,0.22378852,0
 .00252347,0.00336033,-0.00609470,-0.00038373,-0.00055293,0.00076289,-0
 .00245659,0.00201035,-0.00101396,0.00507676,0.00933323,0.01101246,-0.0
 4670357,-0.00012969,0.00698507,-0.02223233,-0.02546935,-0.03243933,0.0
 0240110,0.00818734,0.01000473,0.05978789,0.00073566,0.00005789,-0.0017
 2283,0.00013727,0.00065051,0.00026806,0.00394336,-0.00348998,0.0014052
 9,0.00096715,-0.01813146,-0.02152256,-0.00022493,-0.13577421,-0.110281
 08,-0.00854996,0.00065883,-0.00503079,0.00056299,0.00992893,0.01133313
 ,0.00343870,0.14715321,0.00099598,0.00128811,0.00012434,-0.00050342,-0
 .00007777,0.00007238,-0.00040852,0.00144041,0.00054309,0.00091954,0.00
 659867,0.00498834,0.00482416,-0.11279946,-0.20261494,-0.01541552,-0.00
 429293,-0.00370842,0.00152859,-0.01541275,-0.02044539,0.00889504,0.125
 06506,0.21818340,0.00126110,0.00022826,-0.00055056,0.00035932,-0.00178
 716,-0.00235121,-0.01178139,-0.00110140,0.00370823,-0.28418616,-0.0216
 1055,0.06475466,-0.01383272,-0.00309188,0.00392246,-0.00157243,0.00284
 441,-0.00034633,0.00135481,-0.00021054,-0.00076072,-0.00031995,0.00092
 618,-0.00019108,0.30927128,-0.00048534,-0.00197688,0.00033246,-0.00171
 505,-0.00348127,-0.00426725,-0.02528538,-0.00244415,0.00858018,-0.0213
 1337,-0.04815824,0.00575180,0.02607180,0.00407049,-0.00645276,0.005102
 93,-0.00353637,0.00108589,0.00026318,0.00175479,0.00037024,-0.00075971
 ,-0.00129487,-0.00069875,0.02433029,0.05409514,0.00049538,0.00021721,-
 0.00106552,-0.00092529,-0.00264840,-0.00147550,-0.01795510,-0.00147364
 ,0.00493045,0.06764966,0.00630426,-0.06561527,-0.00723131,-0.00025396,
 0.00028539,-0.00252642,0.00174958,-0.00011672,-0.00050423,-0.00022707,
 0.00092574,-0.00010091,-0.00004567,0.00017228,-0.06977199,-0.00779298,
 0.06833325,-0.00024415,0.00039192,-0.00059522,0.00075875,0.00070148,-0
 .00059315,0.00005712,0.00232223,-0.01524055,-0.05147449,-0.00164879,0.
 01013228,0.00100358,0.00291255,-0.01562367,-0.00068272,0.00057717,0.00
 032251,-0.00038167,0.00195922,-0.00062994,0.00077163,-0.00083315,0.000
 20568,-0.00081844,-0.00604555,0.03126043,0.05177475,-0.00051197,-0.000
 13922,0.00096427,0.00103654,0.00131806,0.00029977,0.00053939,0.0045359
 4,-0.02759328,-0.00193704,-0.05682727,0.04960087,-0.00306033,-0.009985
 27,0.02911872,0.00126108,-0.00007598,-0.00049692,0.00330861,-0.0042768
 3,0.00093910,-0.00021372,0.00144986,-0.00012980,-0.00032483,-0.0008213
 3,0.00307391,0.00172829,0.06733136,0.00068229,0.00048685,-0.00152282,0
 .00073505,0.00007282,0.00076088,-0.00015850,0.00165903,-0.01896184,0.0
 0839363,0.05195304,-0.28607358,0.00176346,0.00021013,-0.00495978,-0.00
 131717,0.00002411,0.00076554,-0.00081793,0.00048714,0.00130675,-0.0003
 2489,0.00020480,0.00186815,0.00141476,0.00182502,-0.00874583,-0.008668
 48,-0.05326900,0.31351472,-0.00033768,-0.00189349,0.00065937,-0.004748
 80,-0.00869698,0.03109386,-0.04664406,0.00063922,0.00479144,-0.0001626
 5,0.00277641,-0.01633708,0.00013828,0.00073305,0.00063371,0.00062651,0
 .00087101,-0.00064855,0.00007730,-0.00014067,0.00017519,-0.00011837,0.
 00002621,0.00002268,0.00032751,0.00072601,0.00013719,-0.00062170,-0.00
 292611,-0.00154639,0.05496966,0.00009774,0.00017451,-0.00051142,-0.001
 50358,-0.00204028,0.00388495,0.00061292,-0.06135845,0.05483867,-0.0000
 9392,0.00457819,-0.02695419,0.00041337,0.00128854,-0.00070961,0.000579
 82,-0.00058600,0.00000549,-0.00014053,-0.00016277,0.00039709,-0.000250
 36,0.00020141,0.00036458,0.00038247,0.00107972,0.00079799,-0.00230651,
 -0.00373140,-0.00333357,0.00447691,0.06519839,0.00032497,0.00111348,-0
 .00040076,0.00075850,0.00237714,-0.00824758,0.00729015,0.05374085,-0.2
 8893150,-0.00108351,0.00156856,-0.01891658,-0.00091814,0.00051009,0.00
 001503,0.00018429,0.00035953,0.00172382,0.00018324,-0.00074372,-0.0000
 1300,-0.00003228,0.00003482,0.00021145,-0.00036671,0.00006175,0.000691
 50,-0.00200680,-0.00293342,-0.00017736,-0.00532884,-0.05729655,0.31554
 301,-0.00557744,-0.00284424,0.00051629,-0.01579630,0.02641938,-0.00206
 385,-0.10922454,0.11007524,-0.01851936,0.00817802,-0.01512882,0.003270
 77,-0.00221847,-0.00246702,-0.00274644,0.00106907,0.00014861,-0.000039
 22,0.00009929,-0.00002179,0.00008401,0.00054052,-0.00083484,0.00010839
 ,0.00073238,0.00047404,0.00061425,0.00036405,0.00074074,0.00033290,0.0
 0009825,-0.00052340,-0.00054044,0.12079037,-0.00130011,0.00006712,0.00
 078965,-0.00285003,0.00479419,0.00003298,0.10968572,-0.23651159,0.0309
 5481,0.01113356,-0.02127980,0.00459326,-0.00334895,-0.00174216,-0.0039
 7799,0.00005837,0.00098475,-0.00044621,-0.00002272,-0.00001443,0.00009
 829,0.00089005,-0.00120284,0.00027336,-0.00035876,0.00063623,0.0006127
 4,0.00027889,0.00101084,-0.00034906,0.00302271,-0.00598585,0.00194106,
 -0.11750011,0.25788425,0.00288206,0.00111737,-0.00020273,0.00744527,-0
 .00933111,-0.00080738,-0.01979619,0.03280011,-0.05350204,0.00890090,-0
 .01684203,0.00236129,-0.00281179,-0.00202211,-0.00186574,-0.00046112,0
 .00099305,0.00073432,0.00006127,-0.00039105,0.00000669,0.00038067,-0.0
 0084176,0.00023301,0.00009927,0.00085123,0.00054321,0.00064084,0.00056
 178,0.00054841,-0.01587931,0.02784905,-0.00415745,0.01853879,-0.033630
 68,0.05529947,0.00558658,0.00702980,0.01228140,-0.12108686,-0.05436953
 ,-0.10525731,-0.01757387,-0.01348590,-0.02245012,-0.00566483,0.0007436
 7,0.00274031,-0.00077259,0.00075505,-0.00015993,0.00044670,-0.00037574
 ,-0.00003739,0.00006484,-0.00005457,0.00000653,0.00006470,-0.00011933,
 0.00001745,-0.00080195,-0.00164174,-0.00080578,0.00021789,0.00035177,0
 .00009271,0.00189857,-0.00024925,0.00008524,-0.00063373,0.00041254,-0.
 00000548,0.13590415,-0.01390221,-0.01109553,-0.02491901,-0.05265420,-0
 .08689314,-0.07124271,-0.00283444,-0.00102733,-0.00156647,-0.00095175,
 0.00036635,0.00036856,0.00034838,0.00038136,0.00004385,0.00016374,-0.0
 0025143,0.00132028,-0.00007993,0.00003033,0.00004745,0.00016064,0.0000
 6086,-0.00004229,-0.00007768,-0.00022346,-0.00022596,0.00001887,-0.000
 02611,0.00000242,-0.00018149,0.00071573,-0.00009537,-0.00033186,-0.000
 24678,0.00007717,0.05701833,0.09234889,-0.00253248,-0.00275921,-0.0081
 7319,-0.10553146,-0.07325251,-0.19213618,0.00730682,0.00559426,0.00745
 947,0.00198961,0.00047334,0.00009289,0.00059653,-0.00015428,0.00006907
 ,-0.00069385,-0.00075630,0.00074664,-0.00003402,-0.00003849,0.00003521
 ,-0.00001493,0.00001989,-0.00007125,0.00040621,0.00033116,0.00036351,0
 .00022944,0.00013292,0.00023908,-0.00003335,0.00020880,0.00175309,-0.0
 0032002,-0.00035986,-0.00000870,0.11098685,0.08186358,0.20687154,0.001
 19784,0.00585584,-0.00933400,-0.04766432,-0.00815161,0.00722695,-0.003
 78617,-0.01862952,0.02683977,0.00043440,0.00081741,0.00124496,-0.00047
 723,0.00010206,0.00008077,0.00000522,0.00190294,0.00027697,0.00002386,
 0.00013266,-0.00001630,0.00022449,0.00003356,-0.00001376,0.00001743,0.
 00002865,-0.00034790,0.00003483,-0.00004703,-0.00076488,-0.00547330,-0
 .00141751,0.00155307,0.00206532,0.00004642,-0.00018110,0.00102739,0.01
 190591,-0.01384420,0.05190950,-0.00339406,-0.01573653,0.02342485,-0.00
 924676,-0.14503704,0.12096845,0.00104422,-0.00098412,0.00045197,0.0000
 3206,-0.00000432,0.00039537,0.00222780,0.00043975,0.00054271,0.0007000
 2,-0.00836120,-0.00079463,-0.00014000,-0.00002073,-0.00001196,-0.00030
 864,-0.00009091,-0.00020481,-0.00011937,0.00000743,-0.00022244,-0.0002
 4081,-0.00008827,-0.00031403,0.00028444,0.00059754,-0.00043962,0.00002
 518,0.00136372,-0.00047638,0.00122009,0.00858013,-0.00938854,0.0078493
 3,0.15895983,-0.00109925,-0.00666492,0.00553052,0.00853053,0.12266810,
 -0.20134415,0.00143360,0.00427537,-0.00845907,0.00021154,-0.00005760,0
 .00021235,0.00040045,-0.00027473,0.00003645,-0.00001029,-0.00276429,0.
 00138588,0.00000636,-0.00004217,-0.00000301,-0.00002627,0.00005307,0.0
 0004921,0.00000592,0.00016094,0.00004763,0.00024653,0.00032931,0.00013
 370,0.00231731,0.00022722,0.00077467,0.00017908,-0.00055439,0.00098665
 ,0.00090782,0.01521863,-0.01924477,-0.01325102,-0.13302721,0.21815317,
 -0.29426434,0.01872885,-0.05542536,-0.00881560,0.00186789,-0.00332224,
 0.00048447,0.00177387,-0.00021555,0.00069215,-0.00022753,0.00007380,0.
 00153182,-0.00112682,0.00328628,-0.01872192,-0.00782534,0.00010534,-0.
 00095792,-0.00020849,-0.00020980,0.00000585,-0.00007582,-0.00012939,-0
 .00003210,0.00005255,0.00002713,0.00005040,0.00005747,-0.00003830,-0.0
 0006963,-0.00002536,0.00005259,-0.00044909,-0.00011431,0.00021991,0.00
 158998,-0.00038185,0.00052914,-0.00075555,0.00098996,0.00051379,0.3225
 7985,0.02654488,-0.04734233,0.00549288,0.02808180,-0.00083575,0.002952
 99,0.00085039,-0.00510213,-0.00013112,-0.00041316,-0.00034405,-0.00001
 890,-0.00108200,-0.00292332,0.00422958,-0.03428435,-0.00539022,-0.0033
 3942,-0.00148519,-0.00034612,-0.00017594,-0.00011612,0.00001260,-0.000
 19054,-0.00000404,0.00013485,-0.00003626,-0.00004572,0.00006198,-0.000
 01327,0.00011960,-0.00001608,-0.00015953,0.00157809,0.00020234,-0.0006
 2843,-0.00016887,0.00154662,0.00006792,-0.00018124,-0.00077007,0.00046
 048,-0.01434454,0.05944581,-0.06478744,0.00338286,-0.06536432,0.010640
 18,-0.00352122,0.00219032,0.00063536,-0.00189152,-0.00005397,-0.000060
 53,0.00019271,-0.00053906,0.00091331,0.00200011,-0.00187233,0.02374452
 ,0.00369266,0.00419236,0.00082955,0.00029139,0.00036052,0.00021428,0.0
 0027760,0.00016314,-0.00002322,-0.00009212,0.00023449,0.00012952,-0.00
 014331,0.00037445,0.00005650,0.00007711,-0.00000369,0.00043991,0.00008
 238,-0.00013242,0.00039765,0.00061058,0.00109666,0.00042283,-0.0004829
 8,0.00007760,0.05710565,-0.00625319,0.06547493,-0.06130715,-0.00460584
 ,-0.03782753,0.00296764,0.00361692,0.01233626,0.00058552,0.00018849,0.
 00003664,-0.00108702,-0.00011309,0.00019938,0.00204663,0.00158365,0.00
 261804,0.00097316,-0.00490531,0.02129737,-0.00000603,-0.00004921,-0.00
 041130,0.00081813,-0.00013305,-0.00085581,0.00002130,0.00019669,-0.000
 01511,-0.00080985,-0.00000285,0.00022174,0.00004008,-0.00005281,-0.000
 15532,-0.00003770,-0.00003328,-0.00003397,-0.00026697,0.00177953,0.000
 95971,0.00121628,-0.00092348,-0.00036611,-0.00286835,-0.00504952,-0.03
 065809,0.05771432,-0.00694207,-0.05588203,-0.04568705,-0.00475973,-0.0
 0822185,-0.02737381,-0.00062580,-0.00053821,-0.00004960,-0.00045145,0.
 00004207,-0.00040814,0.00378106,0.00242277,0.00173144,-0.00399668,-0.0
 0410367,0.03544748,-0.00003210,-0.00021522,-0.00031317,0.00041989,-0.0
 0018986,-0.00118109,-0.00002540,0.00015793,0.00017068,0.00022990,0.000
 26363,0.00035355,0.00016318,0.00004680,-0.00003908,0.00019080,0.000040
 01,-0.00008622,0.00293367,-0.00426650,-0.00198269,-0.00024790,0.001144
 79,-0.00000780,0.00085946,0.00166587,0.00177694,0.00850315,0.06763347,
 -0.03398022,-0.04542356,-0.26834621,-0.00357526,-0.00246905,-0.0080702
 2,-0.00006965,0.00003091,0.00045953,-0.00012042,-0.00010835,-0.0009032
 2,-0.00394341,0.00056367,0.00069140,0.00786445,0.01350588,-0.02410682,
 0.00037128,0.00001536,0.00028700,0.00179213,0.00078298,0.00023121,0.00
 005031,-0.00004684,0.00049140,0.00019057,-0.00045491,0.00092953,-0.000
 11372,0.00015439,0.00013537,0.00014494,-0.00006035,-0.00003659,0.00120
 007,-0.00146068,0.00090693,0.00010784,-0.00042074,0.00166317,-0.002572
 99,-0.00225725,-0.00619868,0.03265409,0.03764857,0.30186619\\-0.000002
 32,0.00000301,-0.00000049,0.00000356,-0.00000308,-0.00000042,-0.000001
 84,0.00000025,0.00000176,0.00000244,-0.00000108,0.00000045,-0.00000576
 ,0.00000179,-0.00000258,0.00000238,-0.00000172,0.00000207,0.00000048,0
 .00000029,-0.00000063,-0.00000113,0.00000040,-0.00000007,-0.00000029,0
 .00000169,0.00000024,-0.00000023,0.00000108,-0.00000002,0.00000085,0.0
 0000018,0.00000013,0.00000146,0.00000040,0.00000016,0.00000030,-0.0000
 0051,-0.00000010,0.00000044,0.00000017,0.00000034,-0.00000020,-0.00000
 210,-0.00000031,-0.00000015,-0.00000077,-0.00000052\\\@


       THE DEATH-KNELL OF THE ATOM

 SO THE ATOMS IN TURN, WE NOW CLEARLY DISCERN,
 FLY TO BITS WITH THE UTMOST FACILITY;
 THEY WEND ON THEIR WAY, AND, IN SPLITTING, DISPLAY
 AN ABSOLUTE LACK OF STABILITY.

          SIR WM. RAMSAY, 1905
 Job cpu time:  0 days  2 hours 21 minutes 19.8 seconds.
 File lengths (MBytes):  RWF=     95 Int=      0 D2E=      0 Chk=      7 Scr=      1
 Normal termination of Gaussian 09 at Thu Dec 27 02:49:49 2012.
