 Entering Gaussian System, Link 0=g09
 Initial command:
 /opt/software/gaussian//g09/l1.exe /scratch/g09/Gau-18449.inp -scrdir=/scratch/g09/
 Entering Link 1 = /opt/software/gaussian//g09/l1.exe PID=     18451.
  
 Copyright (c) 1988,1990,1992,1993,1995,1998,2003,2009,2010,
            Gaussian, Inc.  All Rights Reserved.
  
 This is part of the Gaussian(R) 09 program.  It is based on
 the Gaussian(R) 03 system (copyright 2003, Gaussian, Inc.),
 the Gaussian(R) 98 system (copyright 1998, Gaussian, Inc.),
 the Gaussian(R) 94 system (copyright 1995, Gaussian, Inc.),
 the Gaussian 92(TM) system (copyright 1992, Gaussian, Inc.),
 the Gaussian 90(TM) system (copyright 1990, Gaussian, Inc.),
 the Gaussian 88(TM) system (copyright 1988, Gaussian, Inc.),
 the Gaussian 86(TM) system (copyright 1986, Carnegie Mellon
 University), and the Gaussian 82(TM) system (copyright 1983,
 Carnegie Mellon University). Gaussian is a federally registered
 trademark of Gaussian, Inc.
  
 This software contains proprietary and confidential information,
 including trade secrets, belonging to Gaussian, Inc.
  
 This software is provided under written license and may be
 used, copied, transmitted, or stored only in accord with that
 written license.
  
 The following legend is applicable only to US Government
 contracts under FAR:
  
                    RESTRICTED RIGHTS LEGEND
  
 Use, reproduction and disclosure by the US Government is
 subject to restrictions as set forth in subparagraphs (a)
 and (c) of the Commercial Computer Software - Restricted
 Rights clause in FAR 52.227-19.
  
 Gaussian, Inc.
 340 Quinnipiac St., Bldg. 40, Wallingford CT 06492
  
  
 ---------------------------------------------------------------
 Warning -- This program may not be used in any manner that
 competes with the business of Gaussian, Inc. or will provide
 assistance to any competitor of Gaussian, Inc.  The licensee
 of this program is prohibited from giving any competitor of
 Gaussian, Inc. access to this program.  By using this program,
 the user acknowledges that Gaussian, Inc. is engaged in the
 business of creating and licensing software in the field of
 computational chemistry and represents and warrants to the
 licensee that it is not a competitor of Gaussian, Inc. and that
 it will not use this program in any manner prohibited above.
 ---------------------------------------------------------------
  

 Cite this work as:
 Gaussian 09, Revision B.01,
 M. J. Frisch, G. W. Trucks, H. B. Schlegel, G. E. Scuseria, 
 M. A. Robb, J. R. Cheeseman, G. Scalmani, V. Barone, B. Mennucci, 
 G. A. Petersson, H. Nakatsuji, M. Caricato, X. Li, H. P. Hratchian, 
 A. F. Izmaylov, J. Bloino, G. Zheng, J. L. Sonnenberg, M. Hada, 
 M. Ehara, K. Toyota, R. Fukuda, J. Hasegawa, M. Ishida, T. Nakajima, 
 Y. Honda, O. Kitao, H. Nakai, T. Vreven, J. A. Montgomery, Jr., 
 J. E. Peralta, F. Ogliaro, M. Bearpark, J. J. Heyd, E. Brothers, 
 K. N. Kudin, V. N. Staroverov, T. Keith, R. Kobayashi, J. Normand, 
 K. Raghavachari, A. Rendell, J. C. Burant, S. S. Iyengar, J. Tomasi, 
 M. Cossi, N. Rega, J. M. Millam, M. Klene, J. E. Knox, J. B. Cross, 
 V. Bakken, C. Adamo, J. Jaramillo, R. Gomperts, R. E. Stratmann, 
 O. Yazyev, A. J. Austin, R. Cammi, C. Pomelli, J. W. Ochterski, 
 R. L. Martin, K. Morokuma, V. G. Zakrzewski, G. A. Voth, 
 P. Salvador, J. J. Dannenberg, S. Dapprich, A. D. Daniels, 
 O. Farkas, J. B. Foresman, J. V. Ortiz, J. Cioslowski, 
 and D. J. Fox, Gaussian, Inc., Wallingford CT, 2010.
 
 ******************************************
 Gaussian 09:  AM64L-G09RevB.01 12-Aug-2010
                24-Oct-2012 
 ******************************************
 %chk=/home/hgo357/gaussian/oxane/4Em062xconstb3lypbigcon1b3ltsttsircropt.chk
 %mem=30GB
 %nproc=8
 Will use up to    8 processors via shared memory.
 Default route:  MaxDisk=200GB
 ----------------------------------------------------------------------
 # opt=(Tight) Freq b3lyp/6-311+G(2df,p) nosymm Int=(Grid=Ultrafine) sc
 f=xqc
 ----------------------------------------------------------------------
 1/7=10,14=-1,18=20,19=15,26=3,38=1/1,3;
 2/9=110,12=2,15=1,17=6,18=5,40=1/2;
 3/5=4,6=6,7=114,11=2,16=1,25=1,30=1,71=1,74=-5,75=-5/1,2,3;
 4//1;
 5/5=2,8=3,13=1,38=5/2,8;
 6/7=2,8=2,9=2,10=2,28=1/1;
 7/30=1/1,2,3,16;
 1/7=10,14=-1,18=20,19=15/3(2);
 2/9=110,15=1/2;
 99//99;
 2/9=110,15=1/2;
 3/5=4,6=6,7=114,11=2,16=1,25=1,30=1,71=1,74=-5,75=-5/1,2,3;
 4/5=5,16=3/1;
 5/5=2,8=3,13=1,38=5/2,8;
 7/30=1/1,2,3,16;
 1/7=10,14=-1,18=20,19=15/3(-5);
 2/9=110,15=1/2;
 6/7=2,8=2,9=2,10=2,19=2,28=1/1;
 99/9=1/99;
 --------
 from irc
 --------
 Symbolic Z-matrix:
 Charge =  0 Multiplicity = 1
 6                     1.42078  -0.07158   0.09096 
 6                     0.73681   1.30234   0.08965 
 6                    -0.80145   1.26895   0.29458 
 6                    -1.49284  -0.06536  -0.06159 
 6                    -0.57778  -1.26311   0.14558 
 8                     0.64363  -1.06875  -0.55272 
 1                    -0.36494  -1.425     1.21405 
 1                    -1.0252   -2.1767   -0.24939 
 1                    -1.80147  -0.06511  -1.11086 
 1                    -2.40219  -0.18141   0.53606 
 1                    -1.24998   2.07204  -0.29507 
 1                    -1.02537   1.50711   1.3385 
 1                     0.96321   1.79214  -0.86094 
 1                     1.19306   1.91941   0.86942 
 1                     2.36884  -0.02392  -0.44698 
 1                     1.63564  -0.40213   1.1188 
 

 GradGradGradGradGradGradGradGradGradGradGradGradGradGradGradGradGradGrad
 Berny optimization.
 Initialization pass.
                           ----------------------------
                           !    Initial Parameters    !
                           ! (Angstroms and Degrees)  !
 --------------------------                            --------------------------
 ! Name  Definition              Value          Derivative Info.                !
 --------------------------------------------------------------------------------
 ! R1    R(1,2)                  1.5347         estimate D2E/DX2                !
 ! R2    R(1,6)                  1.4187         estimate D2E/DX2                !
 ! R3    R(1,15)                 1.0911         estimate D2E/DX2                !
 ! R4    R(1,16)                 1.1009         estimate D2E/DX2                !
 ! R5    R(2,3)                  1.5522         estimate D2E/DX2                !
 ! R6    R(2,13)                 1.0931         estimate D2E/DX2                !
 ! R7    R(2,14)                 1.0941         estimate D2E/DX2                !
 ! R8    R(3,4)                  1.5444         estimate D2E/DX2                !
 ! R9    R(3,11)                 1.0926         estimate D2E/DX2                !
 ! R10   R(3,12)                 1.0939         estimate D2E/DX2                !
 ! R11   R(4,5)                  1.5215         estimate D2E/DX2                !
 ! R12   R(4,9)                  1.0937         estimate D2E/DX2                !
 ! R13   R(4,10)                 1.0943         estimate D2E/DX2                !
 ! R14   R(5,6)                  1.4203         estimate D2E/DX2                !
 ! R15   R(5,7)                  1.1014         estimate D2E/DX2                !
 ! R16   R(5,8)                  1.0913         estimate D2E/DX2                !
 ! A1    A(2,1,6)              112.6256         estimate D2E/DX2                !
 ! A2    A(2,1,15)             110.3478         estimate D2E/DX2                !
 ! A3    A(2,1,16)             110.8903         estimate D2E/DX2                !
 ! A4    A(6,1,15)             106.4388         estimate D2E/DX2                !
 ! A5    A(6,1,16)             108.6318         estimate D2E/DX2                !
 ! A6    A(15,1,16)            107.6897         estimate D2E/DX2                !
 ! A7    A(1,2,3)              114.9791         estimate D2E/DX2                !
 ! A8    A(1,2,13)             108.0338         estimate D2E/DX2                !
 ! A9    A(1,2,14)             108.5691         estimate D2E/DX2                !
 ! A10   A(3,2,13)             109.2515         estimate D2E/DX2                !
 ! A11   A(3,2,14)             109.3486         estimate D2E/DX2                !
 ! A12   A(13,2,14)            106.3027         estimate D2E/DX2                !
 ! A13   A(2,3,4)              115.5804         estimate D2E/DX2                !
 ! A14   A(2,3,11)             108.6488         estimate D2E/DX2                !
 ! A15   A(2,3,12)             108.9153         estimate D2E/DX2                !
 ! A16   A(4,3,11)             109.0738         estimate D2E/DX2                !
 ! A17   A(4,3,12)             108.4536         estimate D2E/DX2                !
 ! A18   A(11,3,12)            105.7207         estimate D2E/DX2                !
 ! A19   A(3,4,5)              112.3019         estimate D2E/DX2                !
 ! A20   A(3,4,9)              110.3266         estimate D2E/DX2                !
 ! A21   A(3,4,10)             109.7346         estimate D2E/DX2                !
 ! A22   A(5,4,9)              107.4897         estimate D2E/DX2                !
 ! A23   A(5,4,10)             109.9938         estimate D2E/DX2                !
 ! A24   A(9,4,10)             106.8265         estimate D2E/DX2                !
 ! A25   A(4,5,6)              110.0314         estimate D2E/DX2                !
 ! A26   A(4,5,7)              111.3477         estimate D2E/DX2                !
 ! A27   A(4,5,8)              111.2959         estimate D2E/DX2                !
 ! A28   A(6,5,7)              109.3224         estimate D2E/DX2                !
 ! A29   A(6,5,8)              106.8104         estimate D2E/DX2                !
 ! A30   A(7,5,8)              107.8962         estimate D2E/DX2                !
 ! A31   A(1,6,5)              110.1329         estimate D2E/DX2                !
 ! D1    D(6,1,2,3)             37.8638         estimate D2E/DX2                !
 ! D2    D(6,1,2,13)           -84.426          estimate D2E/DX2                !
 ! D3    D(6,1,2,14)           160.6889         estimate D2E/DX2                !
 ! D4    D(15,1,2,3)           156.6511         estimate D2E/DX2                !
 ! D5    D(15,1,2,13)           34.3613         estimate D2E/DX2                !
 ! D6    D(15,1,2,14)          -80.5238         estimate D2E/DX2                !
 ! D7    D(16,1,2,3)           -84.1112         estimate D2E/DX2                !
 ! D8    D(16,1,2,13)          153.599          estimate D2E/DX2                !
 ! D9    D(16,1,2,14)           38.7139         estimate D2E/DX2                !
 ! D10   D(2,1,6,5)            -63.052          estimate D2E/DX2                !
 ! D11   D(15,1,6,5)           175.9011         estimate D2E/DX2                !
 ! D12   D(16,1,6,5)            60.1914         estimate D2E/DX2                !
 ! D13   D(1,2,3,4)            -22.3772         estimate D2E/DX2                !
 ! D14   D(1,2,3,11)          -145.3286         estimate D2E/DX2                !
 ! D15   D(1,2,3,12)            99.9672         estimate D2E/DX2                !
 ! D16   D(13,2,3,4)            99.2542         estimate D2E/DX2                !
 ! D17   D(13,2,3,11)          -23.6972         estimate D2E/DX2                !
 ! D18   D(13,2,3,12)         -138.4014         estimate D2E/DX2                !
 ! D19   D(14,2,3,4)          -144.7839         estimate D2E/DX2                !
 ! D20   D(14,2,3,11)           92.2647         estimate D2E/DX2                !
 ! D21   D(14,2,3,12)          -22.4395         estimate D2E/DX2                !
 ! D22   D(2,3,4,5)             29.6871         estimate D2E/DX2                !
 ! D23   D(2,3,4,9)            -90.2035         estimate D2E/DX2                !
 ! D24   D(2,3,4,10)           152.3546         estimate D2E/DX2                !
 ! D25   D(11,3,4,5)           152.4136         estimate D2E/DX2                !
 ! D26   D(11,3,4,9)            32.523          estimate D2E/DX2                !
 ! D27   D(11,3,4,10)          -84.9189         estimate D2E/DX2                !
 ! D28   D(12,3,4,5)           -92.9026         estimate D2E/DX2                !
 ! D29   D(12,3,4,9)           147.2068         estimate D2E/DX2                !
 ! D30   D(12,3,4,10)           29.7649         estimate D2E/DX2                !
 ! D31   D(3,4,5,6)            -53.2724         estimate D2E/DX2                !
 ! D32   D(3,4,5,7)             68.1022         estimate D2E/DX2                !
 ! D33   D(3,4,5,8)           -171.4695         estimate D2E/DX2                !
 ! D34   D(9,4,5,6)             68.2544         estimate D2E/DX2                !
 ! D35   D(9,4,5,7)           -170.371          estimate D2E/DX2                !
 ! D36   D(9,4,5,8)            -49.9426         estimate D2E/DX2                !
 ! D37   D(10,4,5,6)          -175.7935         estimate D2E/DX2                !
 ! D38   D(10,4,5,7)           -54.4189         estimate D2E/DX2                !
 ! D39   D(10,4,5,8)            66.0095         estimate D2E/DX2                !
 ! D40   D(4,5,6,1)             71.4935         estimate D2E/DX2                !
 ! D41   D(7,5,6,1)            -51.0834         estimate D2E/DX2                !
 ! D42   D(8,5,6,1)           -167.5775         estimate D2E/DX2                !
 --------------------------------------------------------------------------------
 Trust Radius=3.00D-01 FncErr=1.00D-07 GrdErr=1.00D-06
 Number of steps in this run=     99 maximum allowed number of steps=    100.
 GradGradGradGradGradGradGradGradGradGradGradGradGradGradGradGradGradGrad

                          Input orientation:                          
 ---------------------------------------------------------------------
 Center     Atomic      Atomic             Coordinates (Angstroms)
 Number     Number       Type             X           Y           Z
 ---------------------------------------------------------------------
      1          6           0        1.420783   -0.071577    0.090960
      2          6           0        0.736809    1.302335    0.089650
      3          6           0       -0.801447    1.268951    0.294577
      4          6           0       -1.492835   -0.065360   -0.061592
      5          6           0       -0.577776   -1.263106    0.145583
      6          8           0        0.643631   -1.068746   -0.552723
      7          1           0       -0.364936   -1.424996    1.214045
      8          1           0       -1.025205   -2.176701   -0.249394
      9          1           0       -1.801470   -0.065108   -1.110858
     10          1           0       -2.402187   -0.181410    0.536064
     11          1           0       -1.249980    2.072036   -0.295072
     12          1           0       -1.025371    1.507114    1.338496
     13          1           0        0.963207    1.792136   -0.860935
     14          1           0        1.193064    1.919405    0.869415
     15          1           0        2.368838   -0.023923   -0.446980
     16          1           0        1.635637   -0.402133    1.118801
 ---------------------------------------------------------------------
                    Distance matrix (angstroms):
                    1          2          3          4          5
     1  C    0.000000
     2  C    1.534750   0.000000
     3  C    2.603225   1.552205   0.000000
     4  C    2.917616   2.620072   1.544429   0.000000
     5  C    2.327437   2.883184   2.546280   1.521463   0.000000
     6  O    1.418675   2.458323   2.875934   2.410909   1.420296
     7  H    2.506363   3.149038   2.879811   2.178994   1.101417
     8  H    3.245034   3.914503   3.495496   2.170647   1.091263
     9  H    3.439087   3.123136   2.180598   1.093716   2.123975
    10  H    3.850361   3.500583   2.173530   1.094341   2.156622
    11  H    3.446313   2.165128   1.092618   2.163782   3.430628
    12  H    3.167378   2.169523   1.093906   2.156721   3.049180
    13  H    2.142173   1.093057   2.173231   3.181412   3.566821
    14  H    2.149851   1.094065   2.175225   3.467004   3.713244
    15  H    1.091081   2.170357   3.503161   3.881077   3.251037
    16  H    1.100857   2.184549   3.067775   3.360667   2.566637
                    6          7          8          9         10
     6  O    0.000000
     7  H    2.065331   0.000000
     8  H    2.025978   1.772758   0.000000
     9  H    2.701356   3.052556   2.409052   0.000000
    10  H    3.354077   2.481241   2.548374   1.756912   0.000000
    11  H    3.676501   3.910239   4.254924   2.353090   2.663904
    12  H    3.605181   3.008144   4.011470   3.012233   2.321774
    13  H    2.895129   4.052091   4.481008   3.339948   4.143955
    14  H    3.354609   3.705557   4.790672   4.102073   4.177365
    15  H    2.019697   3.492210   4.024055   4.223020   4.873793
    16  H    2.054858   2.248914   3.478668   4.110799   4.085624
                   11         12         13         14         15
    11  H    0.000000
    12  H    1.743023   0.000000
    13  H    2.301465   2.978788   0.000000
    14  H    2.710681   2.304664   1.750184   0.000000
    15  H    4.184730   4.129486   2.333501   2.625236   0.000000
    16  H    4.055531   3.282446   3.030896   2.376469   1.769830
                   16
    16  H    0.000000
 Symmetry turned off by external request.
 Stoichiometry    C5H10O
 Framework group  C1[X(C5H10O)]
 Deg. of freedom    42
 Full point group                 C1      NOp   1
 Rotational constants (GHZ):      4.5729720      4.4659961      2.5324761
 Standard basis: 6-311+G(2df,p) (5D, 7F)
 Integral buffers will be    131072 words long.
 Raffenetti 2 integral format.
 Two-electron integral symmetry is turned off.
   264 basis functions,   392 primitive gaussians,   294 cartesian basis functions
    24 alpha electrons       24 beta electrons
       nuclear repulsion energy       258.4113686658 Hartrees.
 NAtoms=   16 NActive=   16 NUniq=   16 SFac= 1.00D+00 NAtFMM=   50 NAOKFM=F Big=F
 One-electron integrals computed using PRISM.
 NBasis=   264 RedAO= T  NBF=   264
 NBsUse=   264 1.00D-06 NBFU=   264
 Harris functional with IExCor=  402 diagonalized for initial guess.
 ExpMin= 4.38D-02 ExpMax= 8.59D+03 ExpMxC= 1.30D+03 IAcc=3 IRadAn=         5 AccDes= 0.00D+00
 HarFok:  IExCor=  402 AccDes= 0.00D+00 IRadAn=         5 IDoV= 1
 ScaDFX=  1.000000  1.000000  1.000000  1.000000
 FoFCou: FMM=F IPFlag=           0 FMFlag=      100000 FMFlg1=           0
         NFxFlg=           0 DoJE=T BraDBF=F KetDBF=T FulRan=T
         Omega=  0.000000  0.000000  1.000000  0.000000  0.000000 ICntrl=     500 IOpCl=  0
         NMat0=    1 NMatS0=    1 NMatT0=    0 NMatD0=    1 NMtDS0=    0 NMtDT0=    0
         I1Cent=           4 NGrid=           0.
 Symmetry not used in FoFCou.
 Requested convergence on RMS density matrix=1.00D-08 within  64 cycles.
 Requested convergence on MAX density matrix=1.00D-06.
 Requested convergence on             energy=1.00D-06.
 No special actions if energy rises.
 Keep R1 ints in memory in canonical form, NReq=953762176.
 SCF Done:  E(RB3LYP) =  -271.853826544     A.U. after   11 cycles
             Convg  =    0.4164D-08             -V/T =  2.0045
 QCSCF skips out because SCF is already converged.

 **********************************************************************

            Population analysis using the SCF density.

 **********************************************************************

 Alpha  occ. eigenvalues --  -19.12084 -10.21160 -10.21085 -10.16991 -10.16734
 Alpha  occ. eigenvalues --  -10.16585  -1.03549  -0.79347  -0.76361  -0.65029
 Alpha  occ. eigenvalues --   -0.63778  -0.55678  -0.49632  -0.47525  -0.46468
 Alpha  occ. eigenvalues --   -0.44087  -0.42013  -0.38874  -0.37404  -0.35998
 Alpha  occ. eigenvalues --   -0.33610  -0.32651  -0.30420  -0.25513
 Alpha virt. eigenvalues --    0.00312   0.02277   0.02346   0.02916   0.04498
 Alpha virt. eigenvalues --    0.04713   0.05932   0.06065   0.06612   0.08611
 Alpha virt. eigenvalues --    0.10050   0.10278   0.10398   0.10717   0.11195
 Alpha virt. eigenvalues --    0.12104   0.14262   0.14691   0.15820   0.16187
 Alpha virt. eigenvalues --    0.17455   0.18486   0.19836   0.20077   0.20813
 Alpha virt. eigenvalues --    0.21859   0.23398   0.23760   0.25156   0.26341
 Alpha virt. eigenvalues --    0.26886   0.27114   0.27606   0.28661   0.29418
 Alpha virt. eigenvalues --    0.30209   0.31570   0.32572   0.33221   0.34693
 Alpha virt. eigenvalues --    0.41339   0.44111   0.44412   0.44837   0.46234
 Alpha virt. eigenvalues --    0.47600   0.48445   0.51778   0.52003   0.52867
 Alpha virt. eigenvalues --    0.53960   0.55471   0.55978   0.57220   0.61521
 Alpha virt. eigenvalues --    0.63763   0.64569   0.64767   0.66622   0.66952
 Alpha virt. eigenvalues --    0.67547   0.68858   0.69634   0.71461   0.71887
 Alpha virt. eigenvalues --    0.73691   0.79184   0.82429   0.83005   0.85102
 Alpha virt. eigenvalues --    0.87829   0.90872   0.93466   0.99010   0.99860
 Alpha virt. eigenvalues --    1.01314   1.02715   1.05132   1.06338   1.10055
 Alpha virt. eigenvalues --    1.12411   1.15549   1.16782   1.17940   1.21853
 Alpha virt. eigenvalues --    1.22041   1.24677   1.27016   1.28706   1.28919
 Alpha virt. eigenvalues --    1.31147   1.34886   1.35589   1.36863   1.41130
 Alpha virt. eigenvalues --    1.44089   1.46702   1.48122   1.60228   1.61166
 Alpha virt. eigenvalues --    1.68607   1.71609   1.72749   1.74718   1.77615
 Alpha virt. eigenvalues --    1.78800   1.83900   1.86671   1.88919   1.89757
 Alpha virt. eigenvalues --    1.93324   1.95281   2.03511   2.06158   2.09166
 Alpha virt. eigenvalues --    2.09573   2.13278   2.14903   2.17918   2.20972
 Alpha virt. eigenvalues --    2.22899   2.25995   2.28295   2.30505   2.31998
 Alpha virt. eigenvalues --    2.32466   2.34582   2.35580   2.42105   2.44079
 Alpha virt. eigenvalues --    2.46588   2.46884   2.49112   2.49855   2.52170
 Alpha virt. eigenvalues --    2.54418   2.56753   2.58606   2.60580   2.61522
 Alpha virt. eigenvalues --    2.62696   2.65711   2.66844   2.70863   2.72189
 Alpha virt. eigenvalues --    2.79711   2.84636   2.90792   2.92429   2.94589
 Alpha virt. eigenvalues --    2.94802   3.03343   3.04786   3.07605   3.11679
 Alpha virt. eigenvalues --    3.13221   3.15758   3.20701   3.23036   3.26035
 Alpha virt. eigenvalues --    3.26530   3.28730   3.31821   3.33152   3.34194
 Alpha virt. eigenvalues --    3.36643   3.39488   3.40917   3.42414   3.43572
 Alpha virt. eigenvalues --    3.47635   3.48877   3.49426   3.51376   3.54922
 Alpha virt. eigenvalues --    3.55764   3.58351   3.61309   3.62397   3.63987
 Alpha virt. eigenvalues --    3.65583   3.66438   3.69818   3.71505   3.73847
 Alpha virt. eigenvalues --    3.78080   3.79534   3.82005   3.83175   3.87894
 Alpha virt. eigenvalues --    3.91166   3.94105   3.97044   4.02543   4.10737
 Alpha virt. eigenvalues --    4.14675   4.15521   4.16078   4.18237   4.22908
 Alpha virt. eigenvalues --    4.24785   4.27581   4.29538   4.31173   4.38537
 Alpha virt. eigenvalues --    4.40684   4.48780   4.55676   4.58367   4.60984
 Alpha virt. eigenvalues --    4.73171   4.75552   4.77376   4.83452   4.88650
 Alpha virt. eigenvalues --    4.95729   4.99248   5.08633   5.16569   5.26133
 Alpha virt. eigenvalues --    5.30272   5.34256   5.45055   5.55584   5.78160
 Alpha virt. eigenvalues --    5.82600   6.11792   6.43221   6.59691   7.23510
 Alpha virt. eigenvalues --    7.23981   7.31041   7.63297   7.77442  24.24921
 Alpha virt. eigenvalues --   24.33220  24.34861  24.41920  24.44282  50.06393
          Condensed to atoms (all electrons):
              1          2          3          4          5          6
     1  C    5.406324   0.100255  -0.033565   0.083139  -0.356690   0.184397
     2  C    0.100255   5.475441  -0.089434   0.073257   0.115445  -0.022465
     3  C   -0.033565  -0.089434   5.672827  -0.000702  -0.080811  -0.054955
     4  C    0.083139   0.073257  -0.000702   5.391525   0.146995  -0.026798
     5  C   -0.356690   0.115445  -0.080811   0.146995   5.342676   0.201602
     6  O    0.184397  -0.022465  -0.054955  -0.026798   0.201602   8.085703
     7  H   -0.004800   0.006211   0.001646  -0.098728   0.461737  -0.054485
     8  H    0.023385  -0.010640   0.019548  -0.041565   0.402539  -0.051334
     9  H   -0.001232  -0.001568  -0.035666   0.415963  -0.043821  -0.003863
    10  H   -0.004051   0.014506  -0.058523   0.428922  -0.043796   0.006187
    11  H    0.000116  -0.033287   0.408951  -0.031780   0.007609  -0.002397
    12  H    0.008026  -0.067655   0.455665  -0.062184   0.003509  -0.000664
    13  H   -0.045102   0.418864  -0.032163  -0.007757   0.001006  -0.002023
    14  H   -0.038528   0.426280  -0.052821   0.010719  -0.008288   0.006412
    15  H    0.413227  -0.042182   0.013708  -0.008121   0.018850  -0.050844
    16  H    0.467824  -0.085469  -0.001805  -0.001726  -0.007113  -0.059514
              7          8          9         10         11         12
     1  C   -0.004800   0.023385  -0.001232  -0.004051   0.000116   0.008026
     2  C    0.006211  -0.010640  -0.001568   0.014506  -0.033287  -0.067655
     3  C    0.001646   0.019548  -0.035666  -0.058523   0.408951   0.455665
     4  C   -0.098728  -0.041565   0.415963   0.428922  -0.031780  -0.062184
     5  C    0.461737   0.402539  -0.043821  -0.043796   0.007609   0.003509
     6  O   -0.054485  -0.051334  -0.003863   0.006187  -0.002397  -0.000664
     7  H    0.607188  -0.040601   0.008447  -0.003448  -0.000583   0.000726
     8  H   -0.040601   0.583523  -0.009150  -0.000009  -0.000354  -0.000293
     9  H    0.008447  -0.009150   0.590416  -0.043127  -0.012685   0.007991
    10  H   -0.003448  -0.000009  -0.043127   0.602116   0.001078  -0.015410
    11  H   -0.000583  -0.000354  -0.012685   0.001078   0.598077  -0.042926
    12  H    0.000726  -0.000293   0.007991  -0.015410  -0.042926   0.600326
    13  H   -0.000105   0.000111   0.000465  -0.000405  -0.015571   0.007990
    14  H   -0.000127   0.000164  -0.000426  -0.000035   0.002601  -0.016375
    15  H    0.000250  -0.000554   0.000075   0.000147  -0.000181  -0.000364
    16  H    0.010348   0.000524  -0.000045   0.000171  -0.000634   0.000370
             13         14         15         16
     1  C   -0.045102  -0.038528   0.413227   0.467824
     2  C    0.418864   0.426280  -0.042182  -0.085469
     3  C   -0.032163  -0.052821   0.013708  -0.001805
     4  C   -0.007757   0.010719  -0.008121  -0.001726
     5  C    0.001006  -0.008288   0.018850  -0.007113
     6  O   -0.002023   0.006412  -0.050844  -0.059514
     7  H   -0.000105  -0.000127   0.000250   0.010348
     8  H    0.000111   0.000164  -0.000554   0.000524
     9  H    0.000465  -0.000426   0.000075  -0.000045
    10  H   -0.000405  -0.000035   0.000147   0.000171
    11  H   -0.015571   0.002601  -0.000181  -0.000634
    12  H    0.007990  -0.016375  -0.000364   0.000370
    13  H    0.598288  -0.044918  -0.013263   0.008355
    14  H   -0.044918   0.601266   0.002700  -0.008548
    15  H   -0.013263   0.002700   0.583216  -0.042123
    16  H    0.008355  -0.008548  -0.042123   0.609404
 Mulliken atomic charges:
              1
     1  C   -0.202726
     2  C   -0.277560
     3  C   -0.131902
     4  C   -0.271159
     5  C   -0.161450
     6  O   -0.154960
     7  H    0.106326
     8  H    0.124706
     9  H    0.128226
    10  H    0.115677
    11  H    0.121967
    12  H    0.121268
    13  H    0.126227
    14  H    0.119924
    15  H    0.125458
    16  H    0.109980
 Sum of Mulliken atomic charges =   0.00000
 Mulliken charges with hydrogens summed into heavy atoms:
              1
     1  C    0.032711
     2  C   -0.031409
     3  C    0.111333
     4  C   -0.027256
     5  C    0.069582
     6  O   -0.154960
 Sum of Mulliken charges with hydrogens summed into heavy atoms =   0.00000
 Electronic spatial extent (au):  <R**2>=            556.0624
 Charge=              0.0000 electrons
 Dipole moment (field-independent basis, Debye):
    X=             -0.5632    Y=              0.9599    Z=              1.0562  Tot=              1.5343
 Quadrupole moment (field-independent basis, Debye-Ang):
   XX=            -37.4046   YY=            -39.6586   ZZ=            -39.2694
   XY=              2.1359   XZ=              0.7544   YZ=             -1.4966
 Traceless Quadrupole moment (field-independent basis, Debye-Ang):
   XX=              1.3729   YY=             -0.8811   ZZ=             -0.4919
   XY=              2.1359   XZ=              0.7544   YZ=             -1.4966
 Octapole moment (field-independent basis, Debye-Ang**2):
  XXX=              7.5386  YYY=             -7.7636  ZZZ=             -3.5243  XYY=             -2.1707
  XXY=             -2.2412  XXZ=             -2.0258  XZZ=              0.8056  YZZ=             -0.8059
  YYZ=             -0.8330  XYZ=             -1.1775
 Hexadecapole moment (field-independent basis, Debye-Ang**3):
 XXXX=           -337.6117 YYYY=           -328.7312 ZZZZ=            -94.0145 XXXY=             -3.2545
 XXXZ=              0.3158 YYYX=              1.5963 YYYZ=            -15.3942 ZZZX=              6.2503
 ZZZY=            -15.2742 XXYY=           -113.7453 XXZZ=            -70.7406 YYZZ=            -69.6081
 XXYZ=             -5.4414 YYXZ=              5.7423 ZZXY=             -0.1644
 N-N= 2.584113686658D+02 E-N=-1.149897790309D+03  KE= 2.706285980458D+02
 Calling FoFJK, ICntrl=      2127 FMM=F ISym2X=0 I1Cent= 0 IOpClX= 0 NMat=1 NMatS=1 NMatT=0.
 -------------------------------------------------------------------
 Center     Atomic                   Forces (Hartrees/Bohr)
 Number     Number              X              Y              Z
 -------------------------------------------------------------------
      1        6          -0.000738502    0.000816421    0.001772904
      2        6          -0.001113922    0.000299886   -0.005417408
      3        6           0.000848588   -0.001215416    0.005602759
      4        6           0.000792832    0.001361093   -0.002707378
      5        6          -0.000934889    0.000145102   -0.001280231
      6        8           0.001467115   -0.001161915    0.002546528
      7        1          -0.000328061   -0.000035156   -0.000073501
      8        1          -0.000059852    0.000064410   -0.000238475
      9        1           0.000550519    0.000422391   -0.000326065
     10        1          -0.000172023    0.000048411   -0.000659173
     11        1          -0.000258253    0.000256774    0.001522024
     12        1           0.000748642   -0.001095036    0.000660655
     13        1          -0.000730648   -0.000757253   -0.000846666
     14        1           0.000225701    0.000571561   -0.001256580
     15        1           0.000081926   -0.000077830    0.000418349
     16        1          -0.000379172    0.000356559    0.000282258
 -------------------------------------------------------------------
 Cartesian Forces:  Max     0.005602759 RMS     0.001451667

 GradGradGradGradGradGradGradGradGradGradGradGradGradGradGradGradGradGrad
 Berny optimization.
 Internal  Forces:  Max     0.003127811 RMS     0.000834044
 Search for a local minimum.
 Step number   1 out of a maximum of   99
 All quantities printed in internal units (Hartrees-Bohrs-Radians)
 Mixed Optimization -- En-DIIS/RFO-DIIS
 Second derivative matrix not updated -- first step.
 ITU=  0
     Eigenvalues ---    0.00302   0.00574   0.01425   0.02489   0.02874
     Eigenvalues ---    0.03458   0.04455   0.04663   0.04937   0.04994
     Eigenvalues ---    0.05277   0.05929   0.06304   0.08141   0.08288
     Eigenvalues ---    0.08679   0.08782   0.09145   0.10837   0.11627
     Eigenvalues ---    0.11837   0.12515   0.13376   0.16923   0.18004
     Eigenvalues ---    0.22052   0.27040   0.27607   0.28390   0.29789
     Eigenvalues ---    0.33526   0.33587   0.34316   0.34347   0.34365
     Eigenvalues ---    0.34387   0.34462   0.34512   0.34667   0.34688
     Eigenvalues ---    0.40463   0.41133
 RFO step:  Lambda=-4.10458630D-03 EMin= 3.01798857D-03
 Linear search not attempted -- first point.
 Iteration  1 RMS(Cart)=  0.07451359 RMS(Int)=  0.00309223
 Iteration  2 RMS(Cart)=  0.00386115 RMS(Int)=  0.00115161
 Iteration  3 RMS(Cart)=  0.00000519 RMS(Int)=  0.00115161
 Iteration  4 RMS(Cart)=  0.00000000 RMS(Int)=  0.00115161
 Variable       Old X    -DE/DX   Delta X   Delta X   Delta X     New X
                                 (Linear)    (Quad)   (Total)
    R1        2.90026  -0.00035   0.00000  -0.00341  -0.00379   2.89646
    R2        2.68091  -0.00058   0.00000   0.00145   0.00225   2.68315
    R3        2.06185  -0.00014   0.00000  -0.00039  -0.00039   2.06145
    R4        2.08032   0.00008   0.00000   0.00024   0.00024   2.08056
    R5        2.93324  -0.00062   0.00000  -0.00935  -0.01028   2.92296
    R6        2.06558   0.00025   0.00000   0.00071   0.00071   2.06628
    R7        2.06748  -0.00048   0.00000  -0.00138  -0.00138   2.06610
    R8        2.91855  -0.00042   0.00000  -0.00525  -0.00592   2.91262
    R9        2.06475  -0.00053   0.00000  -0.00151  -0.00151   2.06324
   R10        2.06718   0.00024   0.00000   0.00069   0.00069   2.06787
   R11        2.87515  -0.00031   0.00000   0.00215   0.00271   2.87786
   R12        2.06682   0.00016   0.00000   0.00045   0.00045   2.06728
   R13        2.06800  -0.00022   0.00000  -0.00064  -0.00064   2.06737
   R14        2.68397  -0.00108   0.00000   0.00169   0.00246   2.68643
   R15        2.08138  -0.00013   0.00000  -0.00038  -0.00038   2.08100
   R16        2.06219   0.00006   0.00000   0.00016   0.00016   2.06235
    A1        1.96569   0.00000   0.00000  -0.00161  -0.00433   1.96135
    A2        1.92593   0.00059   0.00000   0.00031   0.00140   1.92733
    A3        1.93540  -0.00094   0.00000  -0.00251  -0.00234   1.93306
    A4        1.85771  -0.00059   0.00000  -0.00772  -0.00680   1.85091
    A5        1.89598   0.00088   0.00000   0.01124   0.01214   1.90812
    A6        1.87954   0.00008   0.00000   0.00033   0.00009   1.87963
    A7        2.00676  -0.00021   0.00000  -0.01836  -0.02339   1.98338
    A8        1.88555   0.00113   0.00000   0.01960   0.02094   1.90649
    A9        1.89489  -0.00090   0.00000  -0.00995  -0.00849   1.88640
   A10        1.90680   0.00004   0.00000   0.01366   0.01519   1.92199
   A11        1.90849  -0.00002   0.00000  -0.00624  -0.00512   1.90338
   A12        1.85533  -0.00003   0.00000   0.00302   0.00236   1.85770
   A13        2.01726  -0.00036   0.00000  -0.02005  -0.02543   1.99183
   A14        1.89628  -0.00026   0.00000  -0.00652  -0.00529   1.89099
   A15        1.90093   0.00041   0.00000   0.01516   0.01686   1.91779
   A16        1.90370  -0.00076   0.00000  -0.00896  -0.00747   1.89623
   A17        1.89287   0.00105   0.00000   0.01917   0.02064   1.91351
   A18        1.84517  -0.00006   0.00000   0.00322   0.00251   1.84769
   A19        1.96004   0.00016   0.00000  -0.00473  -0.00817   1.95187
   A20        1.92556  -0.00078   0.00000   0.00108   0.00175   1.92731
   A21        1.91523   0.00046   0.00000  -0.00161  -0.00035   1.91488
   A22        1.87605   0.00102   0.00000   0.01334   0.01436   1.89040
   A23        1.91975  -0.00089   0.00000  -0.00845  -0.00740   1.91235
   A24        1.86447   0.00002   0.00000   0.00086   0.00037   1.86484
   A25        1.92041   0.00040   0.00000   0.01375   0.01218   1.93259
   A26        1.94338  -0.00111   0.00000  -0.01037  -0.01013   1.93325
   A27        1.94248   0.00069   0.00000   0.00240   0.00285   1.94533
   A28        1.90804   0.00004   0.00000  -0.00107  -0.00082   1.90722
   A29        1.86419  -0.00010   0.00000  -0.00308  -0.00230   1.86190
   A30        1.88314   0.00012   0.00000  -0.00165  -0.00182   1.88133
   A31        1.92218   0.00120   0.00000   0.02370   0.02203   1.94421
    D1        0.66085   0.00140   0.00000   0.11920   0.11861   0.77946
    D2       -1.47351   0.00063   0.00000   0.09915   0.09928  -1.37423
    D3        2.80455   0.00054   0.00000   0.09051   0.09000   2.89455
    D4        2.73408   0.00106   0.00000   0.10860   0.10817   2.84224
    D5        0.59972   0.00030   0.00000   0.08855   0.08884   0.68856
    D6       -1.40540   0.00020   0.00000   0.07991   0.07956  -1.32585
    D7       -1.46802   0.00094   0.00000   0.10760   0.10768  -1.36034
    D8        2.68081   0.00018   0.00000   0.08755   0.08835   2.76916
    D9        0.67569   0.00008   0.00000   0.07892   0.07907   0.75475
   D10       -1.10047   0.00094   0.00000   0.01648   0.01771  -1.08275
   D11        3.07005   0.00060   0.00000   0.02218   0.02301   3.09306
   D12        1.05054   0.00038   0.00000   0.02028   0.02052   1.07105
   D13       -0.39056  -0.00313   0.00000  -0.19960  -0.19871  -0.58926
   D14       -2.53646  -0.00167   0.00000  -0.16836  -0.16760  -2.70406
   D15        1.74476  -0.00168   0.00000  -0.17671  -0.17669   1.56807
   D16        1.73231  -0.00176   0.00000  -0.17642  -0.17637   1.55594
   D17       -0.41359  -0.00031   0.00000  -0.14517  -0.14526  -0.55886
   D18       -2.41556  -0.00032   0.00000  -0.15353  -0.15435  -2.56991
   D19       -2.52696  -0.00179   0.00000  -0.16864  -0.16787  -2.69483
   D20        1.61032  -0.00033   0.00000  -0.13739  -0.13677   1.47356
   D21       -0.39164  -0.00034   0.00000  -0.14575  -0.14585  -0.53750
   D22        0.51814   0.00216   0.00000   0.14921   0.14872   0.66686
   D23       -1.57435   0.00130   0.00000   0.13469   0.13476  -1.43959
   D24        2.65909   0.00146   0.00000   0.13396   0.13348   2.79257
   D25        2.66012   0.00096   0.00000   0.11910   0.11863   2.77875
   D26        0.56763   0.00010   0.00000   0.10457   0.10467   0.67231
   D27       -1.48211   0.00026   0.00000   0.10384   0.10339  -1.37872
   D28       -1.62146   0.00106   0.00000   0.12842   0.12867  -1.49278
   D29        2.56924   0.00020   0.00000   0.11390   0.11472   2.68396
   D30        0.51950   0.00036   0.00000   0.11317   0.11343   0.63293
   D31       -0.92978   0.00053   0.00000  -0.01522  -0.01434  -0.94412
   D32        1.18861   0.00011   0.00000  -0.01412  -0.01391   1.17470
   D33       -2.99271  -0.00003   0.00000  -0.02166  -0.02115  -3.01386
   D34        1.19126   0.00034   0.00000  -0.00781  -0.00760   1.18366
   D35       -2.97353  -0.00008   0.00000  -0.00672  -0.00717  -2.98070
   D36       -0.87166  -0.00021   0.00000  -0.01426  -0.01441  -0.88608
   D37       -3.06818   0.00046   0.00000  -0.00380  -0.00311  -3.07129
   D38       -0.94979   0.00005   0.00000  -0.00271  -0.00268  -0.95247
   D39        1.15208  -0.00009   0.00000  -0.01025  -0.00992   1.14216
   D40        1.24780  -0.00208   0.00000  -0.07544  -0.07579   1.17201
   D41       -0.89157  -0.00099   0.00000  -0.07073  -0.07051  -0.96209
   D42       -2.92478  -0.00109   0.00000  -0.06657  -0.06672  -2.99150
         Item               Value     Threshold  Converged?
 Maximum Force            0.003128     0.000015     NO 
 RMS     Force            0.000834     0.000010     NO 
 Maximum Displacement     0.274310     0.000060     NO 
 RMS     Displacement     0.075030     0.000040     NO 
 Predicted change in Energy=-2.978456D-03
 GradGradGradGradGradGradGradGradGradGradGradGradGradGradGradGradGradGrad

                          Input orientation:                          
 ---------------------------------------------------------------------
 Center     Atomic      Atomic             Coordinates (Angstroms)
 Number     Number       Type             X           Y           Z
 ---------------------------------------------------------------------
      1          6           0        1.421532   -0.058924    0.124810
      2          6           0        0.725845    1.303529    0.029713
      3          6           0       -0.786198    1.251645    0.351442
      4          6           0       -1.478968   -0.053717   -0.086380
      5          6           0       -0.589446   -1.269475    0.137003
      6          8           0        0.671699   -1.093166   -0.494954
      7          1           0       -0.435248   -1.448122    1.212635
      8          1           0       -1.030875   -2.171193   -0.290886
      9          1           0       -1.740698   -0.009665   -1.147650
     10          1           0       -2.414977   -0.178025    0.466136
     11          1           0       -1.273196    2.090422   -0.149913
     12          1           0       -0.944434    1.410577    1.422482
     13          1           0        0.883857    1.719728   -0.968986
     14          1           0        1.216627    1.984778    0.730008
     15          1           0        2.382474   -0.032579   -0.390844
     16          1           0        1.612767   -0.326897    1.175422
 ---------------------------------------------------------------------
                    Distance matrix (angstroms):
                    1          2          3          4          5
     1  C    0.000000
     2  C    1.532743   0.000000
     3  C    2.577407   1.546763   0.000000
     4  C    2.908182   2.591678   1.541294   0.000000
     5  C    2.347257   2.891687   2.537862   1.522898   0.000000
     6  O    1.419863   2.454048   2.887903   2.423376   1.421598
     7  H    2.561419   3.212324   2.855444   2.172823   1.101215
     8  H    3.263247   3.906730   3.491170   2.174009   1.091349
     9  H    3.408999   3.032243   2.179277   1.093955   2.136080
    10  H    3.853504   3.500033   2.170261   1.094003   2.152245
    11  H    3.457849   2.155836   1.091819   2.154927   3.440747
    12  H    3.072651   2.177407   1.094270   2.169458   2.993519
    13  H    2.156174   1.093430   2.179843   3.083349   3.511292
    14  H    2.141255   1.093335   2.166127   3.476806   3.768783
    15  H    1.090873   2.169440   3.498672   3.873484   3.262031
    16  H    1.100985   2.181185   2.987603   3.350462   2.610845
                    6          7          8          9         10
     6  O    0.000000
     7  H    2.065717   0.000000
     8  H    2.025474   1.771491   0.000000
     9  H    2.723902   3.056846   2.431069   0.000000
    10  H    3.359873   2.467739   2.541956   1.757073   0.000000
    11  H    3.746585   3.883296   4.270825   2.371582   2.613242
    12  H    3.543610   2.911265   3.971420   3.042483   2.366591
    13  H    2.860435   4.066298   4.389223   3.148176   4.067352
    14  H    3.357263   3.840107   4.833796   4.031026   4.235079
    15  H    2.015549   3.537579   4.029220   4.192115   4.875563
    16  H    2.064688   2.335144   3.541233   4.091825   4.092429
                   11         12         13         14         15
    11  H    0.000000
    12  H    1.744334   0.000000
    13  H    2.336915   3.026111   0.000000
    14  H    2.642846   2.340815   1.751447   0.000000
    15  H    4.234277   4.054525   2.377116   2.585583   0.000000
    16  H    3.991081   3.101473   3.052617   2.387292   1.769820
                   16
    16  H    0.000000
 Symmetry turned off by external request.
 Stoichiometry    C5H10O
 Framework group  C1[X(C5H10O)]
 Deg. of freedom    42
 Full point group                 C1      NOp   1
 Rotational constants (GHZ):      4.5830450      4.4735531      2.5386027
 Standard basis: 6-311+G(2df,p) (5D, 7F)
 Integral buffers will be    131072 words long.
 Raffenetti 2 integral format.
 Two-electron integral symmetry is turned off.
   264 basis functions,   392 primitive gaussians,   294 cartesian basis functions
    24 alpha electrons       24 beta electrons
       nuclear repulsion energy       258.5726255580 Hartrees.
 NAtoms=   16 NActive=   16 NUniq=   16 SFac= 1.00D+00 NAtFMM=   50 NAOKFM=F Big=F
 One-electron integrals computed using PRISM.
 NBasis=   264 RedAO= T  NBF=   264
 NBsUse=   264 1.00D-06 NBFU=   264
 Initial guess read from the read-write file.
 B after Tr=     0.000000    0.000000    0.000000
         Rot=    1.000000    0.000000    0.000000    0.000000 Ang=   0.00 deg.
 Harris functional with IExCor=  402 diagonalized for initial guess.
 ExpMin= 4.38D-02 ExpMax= 8.59D+03 ExpMxC= 1.30D+03 IAcc=3 IRadAn=         5 AccDes= 0.00D+00
 HarFok:  IExCor=  402 AccDes= 0.00D+00 IRadAn=         5 IDoV= 1
 ScaDFX=  1.000000  1.000000  1.000000  1.000000
 FoFCou: FMM=F IPFlag=           0 FMFlag=      100000 FMFlg1=           0
         NFxFlg=           0 DoJE=T BraDBF=F KetDBF=T FulRan=T
         Omega=  0.000000  0.000000  1.000000  0.000000  0.000000 ICntrl=     500 IOpCl=  0
         NMat0=    1 NMatS0=    1 NMatT0=    0 NMatD0=    1 NMtDS0=    0 NMtDT0=    0
         I1Cent=           4 NGrid=           0.
 Symmetry not used in FoFCou.
 Requested convergence on RMS density matrix=1.00D-08 within  64 cycles.
 Requested convergence on MAX density matrix=1.00D-06.
 Requested convergence on             energy=1.00D-06.
 No special actions if energy rises.
 Keep R1 ints in memory in canonical form, NReq=953762176.
 SCF Done:  E(RB3LYP) =  -271.857537384     A.U. after    9 cycles
             Convg  =    0.8802D-08             -V/T =  2.0046
 QCSCF skips out because SCF is already converged.
 Calling FoFJK, ICntrl=      2127 FMM=F ISym2X=0 I1Cent= 0 IOpClX= 0 NMat=1 NMatS=1 NMatT=0.
 -------------------------------------------------------------------
 Center     Atomic                   Forces (Hartrees/Bohr)
 Number     Number              X              Y              Z
 -------------------------------------------------------------------
      1        6          -0.001735861    0.001634084   -0.000827793
      2        6          -0.001039128   -0.001008955    0.000543478
      3        6           0.000783756   -0.000298335   -0.000879687
      4        6           0.001018237    0.000969092   -0.000013240
      5        6           0.000533468    0.001086293   -0.000434923
      6        8           0.000481953   -0.001496774    0.001488633
      7        1          -0.000119931    0.000013362    0.000295797
      8        1           0.000309558    0.000245480   -0.000469387
      9        1           0.001121688    0.000323070   -0.000365711
     10        1          -0.000634009    0.000066206   -0.000531487
     11        1          -0.000912408    0.001531984    0.001774053
     12        1           0.001330028   -0.002415770    0.000704241
     13        1          -0.001109420   -0.002134676   -0.001044709
     14        1           0.000673591    0.001673640   -0.001030866
     15        1           0.000444475   -0.000086176    0.000503237
     16        1          -0.001145996   -0.000102525    0.000288364
 -------------------------------------------------------------------
 Cartesian Forces:  Max     0.002415770 RMS     0.001007373

 GradGradGradGradGradGradGradGradGradGradGradGradGradGradGradGradGradGrad
 Berny optimization.
 Using GEDIIS/GDIIS optimizer.
 Internal  Forces:  Max     0.001962735 RMS     0.000679434
 Search for a local minimum.
 Step number   2 out of a maximum of   99
 All quantities printed in internal units (Hartrees-Bohrs-Radians)
 Mixed Optimization -- En-DIIS/RFO-DIIS
 Swaping is turned off.
 Update second derivatives using D2CorX and points    1    2
 DE= -3.71D-03 DEPred=-2.98D-03 R= 1.25D+00
 SS=  1.41D+00  RLast= 6.96D-01 DXNew= 5.0454D-01 2.0891D+00
 Trust test= 1.25D+00 RLast= 6.96D-01 DXMaxT set to 5.05D-01
 ITU=  1  0
     Eigenvalues ---    0.00104   0.00588   0.01395   0.02529   0.03029
     Eigenvalues ---    0.04043   0.04605   0.04767   0.04966   0.05072
     Eigenvalues ---    0.05400   0.05980   0.06274   0.08007   0.08195
     Eigenvalues ---    0.08464   0.08550   0.09018   0.10812   0.11672
     Eigenvalues ---    0.11812   0.12370   0.13162   0.17004   0.17654
     Eigenvalues ---    0.22171   0.27187   0.27653   0.28388   0.29825
     Eigenvalues ---    0.33539   0.33587   0.34319   0.34363   0.34386
     Eigenvalues ---    0.34406   0.34463   0.34659   0.34680   0.34859
     Eigenvalues ---    0.40750   0.41240
 En-DIIS/RFO-DIIS IScMMF=        0 using points:     2    1
 RFO step:  Lambda=-6.87642861D-04.
 DidBck=F Rises=F RFO-DIIS coefs:    4.32044   -3.32044
 Maximum step size (   0.505) exceeded in Quadratic search.
    -- Step size scaled by   0.943
 Iteration  1 RMS(Cart)=  0.12361252 RMS(Int)=  0.33566632
 Iteration  2 RMS(Cart)=  0.12225699 RMS(Int)=  0.22866111
 Iteration  3 RMS(Cart)=  0.11428046 RMS(Int)=  0.13200141
 Iteration  4 RMS(Cart)=  0.09114071 RMS(Int)=  0.06304531
 Iteration  5 RMS(Cart)=  0.04896805 RMS(Int)=  0.04045136
 Iteration  6 RMS(Cart)=  0.00270660 RMS(Int)=  0.04039724
 Iteration  7 RMS(Cart)=  0.00012875 RMS(Int)=  0.04039716
 Iteration  8 RMS(Cart)=  0.00000876 RMS(Int)=  0.04039716
 Iteration  9 RMS(Cart)=  0.00000058 RMS(Int)=  0.04039716
 Variable       Old X    -DE/DX   Delta X   Delta X   Delta X     New X
                                  (DIIS)     (GDIIS)  (Total)
    R1        2.89646  -0.00131  -0.01187  -0.02166  -0.05509   2.84137
    R2        2.68315  -0.00121   0.00703  -0.00307   0.03581   2.71897
    R3        2.06145   0.00015  -0.00123   0.00230   0.00106   2.06251
    R4        2.08056   0.00010   0.00075   0.00093   0.00168   2.08224
    R5        2.92296  -0.00163  -0.03219  -0.03588  -0.11175   2.81121
    R6        2.06628  -0.00002   0.00221  -0.00114   0.00107   2.06735
    R7        2.06610   0.00068  -0.00432   0.00995   0.00564   2.07174
    R8        2.91262  -0.00128  -0.01854  -0.02512  -0.07847   2.83415
    R9        2.06324   0.00077  -0.00472   0.01108   0.00636   2.06960
   R10        2.06787   0.00015   0.00215   0.00085   0.00300   2.07087
   R11        2.87786  -0.00043   0.00849   0.00236   0.02761   2.90547
   R12        2.06728   0.00010   0.00141   0.00060   0.00202   2.06929
   R13        2.06737   0.00027  -0.00200   0.00401   0.00201   2.06937
   R14        2.68643  -0.00196   0.00770  -0.00687   0.05462   2.74105
   R15        2.08100   0.00027  -0.00119   0.00379   0.00260   2.08359
   R16        2.06235  -0.00014   0.00051  -0.00191  -0.00140   2.06095
    A1        1.96135   0.00082  -0.01357  -0.00389  -0.09762   1.86373
    A2        1.92733   0.00044   0.00437   0.01978   0.05504   1.98237
    A3        1.93306  -0.00093  -0.00732  -0.01661  -0.01801   1.91505
    A4        1.85091  -0.00067  -0.02128   0.00355   0.02753   1.87844
    A5        1.90812   0.00007   0.03799  -0.01164   0.03387   1.94199
    A6        1.87963   0.00026   0.00027   0.01024   0.00322   1.88284
    A7        1.98338  -0.00014  -0.07320  -0.05682  -0.27910   1.70428
    A8        1.90649   0.00008   0.06555  -0.02484   0.06298   1.96947
    A9        1.88640  -0.00009  -0.02658   0.04272   0.08170   1.96810
   A10        1.92199  -0.00001   0.04754  -0.01430   0.05964   1.98163
   A11        1.90338   0.00005  -0.01602   0.03887   0.08070   1.98408
   A12        1.85770   0.00015   0.00740   0.02076   0.00051   1.85821
   A13        1.99183  -0.00054  -0.07958  -0.07343  -0.31714   1.67469
   A14        1.89099   0.00037  -0.01656   0.05963   0.11292   2.00391
   A15        1.91779  -0.00009   0.05277  -0.02713   0.05097   1.96876
   A16        1.89623   0.00011  -0.02337   0.06002   0.10885   2.00508
   A17        1.91351   0.00018   0.06459  -0.02950   0.05727   1.97077
   A18        1.84769   0.00003   0.00786   0.01979  -0.00382   1.84386
   A19        1.95187   0.00011  -0.02558  -0.02770  -0.15712   1.79475
   A20        1.92731  -0.00053   0.00546  -0.00993   0.01857   1.94587
   A21        1.91488   0.00024  -0.00110   0.01483   0.05156   1.96644
   A22        1.89040   0.00050   0.04493   0.01000   0.06410   1.95450
   A23        1.91235  -0.00045  -0.02317   0.00338   0.03255   1.94490
   A24        1.86484   0.00013   0.00116   0.01114  -0.00504   1.85980
   A25        1.93259   0.00051   0.03813   0.01659   0.00172   1.93431
   A26        1.93325  -0.00078  -0.03171  -0.00885  -0.02498   1.90827
   A27        1.94533   0.00047   0.00892   0.00265   0.02050   1.96583
   A28        1.90722   0.00027  -0.00256   0.00808   0.01329   1.92050
   A29        1.86190  -0.00070  -0.00719  -0.02580  -0.00561   1.85628
   A30        1.88133   0.00023  -0.00568   0.00673  -0.00409   1.87724
   A31        1.94421  -0.00036   0.06894  -0.00366   0.00128   1.94549
    D1        0.77946   0.00069   0.37124   0.24899   0.56227   1.34173
    D2       -1.37423   0.00075   0.31074   0.32646   0.62869  -0.74554
    D3        2.89455   0.00059   0.28169   0.29186   0.53673  -2.85190
    D4        2.84224   0.00067   0.33854   0.26414   0.56725  -2.87369
    D5        0.68856   0.00073   0.27805   0.34161   0.63367   1.32223
    D6       -1.32585   0.00057   0.24900   0.30701   0.54171  -0.78414
    D7       -1.36034   0.00069   0.33702   0.27898   0.59537  -0.76497
    D8        2.76916   0.00075   0.27653   0.35645   0.66179  -2.85223
    D9        0.75475   0.00059   0.24748   0.32186   0.56983   1.32459
   D10       -1.08275   0.00069   0.05544   0.00866   0.09800  -0.98476
   D11        3.09306   0.00011   0.07201  -0.01565   0.07093  -3.11920
   D12        1.07105   0.00012   0.06422  -0.02378   0.03359   1.10465
   D13       -0.58926  -0.00101  -0.62192  -0.38118  -0.93419  -1.52346
   D14       -2.70406  -0.00106  -0.52456  -0.45272  -0.93037   2.64875
   D15        1.56807  -0.00125  -0.55301  -0.49489  -1.03310   0.53497
   D16        1.55594  -0.00103  -0.55202  -0.46539  -1.00141   0.55454
   D17       -0.55886  -0.00107  -0.45466  -0.53694  -0.99758  -1.55644
   D18       -2.56991  -0.00126  -0.48310  -0.57910  -1.10031   2.61296
   D19       -2.69483  -0.00083  -0.52542  -0.42588  -0.90600   2.68236
   D20        1.47356  -0.00088  -0.42806  -0.49742  -0.90217   0.57138
   D21       -0.53750  -0.00106  -0.45651  -0.53958  -1.00490  -1.54240
   D22        0.66686   0.00073   0.46547   0.29754   0.70078   1.36763
   D23       -1.43959   0.00038   0.42178   0.31025   0.71016  -0.72943
   D24        2.79257   0.00039   0.41777   0.29356   0.67097  -2.81965
   D25        2.77875   0.00092   0.37130   0.36876   0.69895  -2.80548
   D26        0.67231   0.00057   0.32761   0.38147   0.70833   1.38064
   D27       -1.37872   0.00058   0.32360   0.36478   0.66915  -0.70958
   D28       -1.49278   0.00111   0.40273   0.40961   0.80360  -0.68919
   D29        2.68396   0.00076   0.35905   0.42232   0.81298  -2.78625
   D30        0.63293   0.00077   0.35504   0.40563   0.77379   1.40672
   D31       -0.94412  -0.00015  -0.04489  -0.07321  -0.08626  -1.03039
   D32        1.17470   0.00001  -0.04353  -0.05776  -0.08512   1.08958
   D33       -3.01386   0.00009  -0.06621  -0.05344  -0.09377  -3.10763
   D34        1.18366  -0.00040  -0.02380  -0.09658  -0.12294   1.06072
   D35       -2.98070  -0.00024  -0.02244  -0.08112  -0.12179  -3.10250
   D36       -0.88608  -0.00016  -0.04512  -0.07681  -0.13045  -1.01653
   D37       -3.07129  -0.00021  -0.00974  -0.07586  -0.06981  -3.14110
   D38       -0.95247  -0.00005  -0.00838  -0.06040  -0.06866  -1.02113
   D39        1.14216   0.00003  -0.03106  -0.05609  -0.07732   1.06484
   D40        1.17201  -0.00130  -0.23720  -0.10955  -0.34099   0.83103
   D41       -0.96209  -0.00084  -0.22070  -0.11470  -0.31964  -1.28173
   D42       -2.99150  -0.00087  -0.20883  -0.11283  -0.31851   2.97318
         Item               Value     Threshold  Converged?
 Maximum Force            0.001963     0.000015     NO 
 RMS     Force            0.000679     0.000010     NO 
 Maximum Displacement     1.774897     0.000060     NO 
 RMS     Displacement     0.458542     0.000040     NO 
 Predicted change in Energy=-4.893970D-03
 GradGradGradGradGradGradGradGradGradGradGradGradGradGradGradGradGradGrad

                          Input orientation:                          
 ---------------------------------------------------------------------
 Center     Atomic      Atomic             Coordinates (Angstroms)
 Number     Number       Type             X           Y           Z
 ---------------------------------------------------------------------
      1          6           0        1.360414    0.077290    0.312900
      2          6           0        0.562955    1.212890   -0.266109
      3          6           0       -0.626554    1.090951    0.618894
      4          6           0       -1.348757    0.086368   -0.228770
      5          6           0       -0.628548   -1.228614    0.111891
      6          8           0        0.785240   -1.137967   -0.199462
      7          1           0       -0.765934   -1.453342    1.182556
      8          1           0       -1.013990   -2.077182   -0.454494
      9          1           0       -1.273054    0.331338   -1.293351
     10          1           0       -2.417465    0.028990    0.003046
     11          1           0       -1.170466    2.026123    0.789322
     12          1           0       -0.377300    0.708273    1.615053
     13          1           0        0.334397    1.073833   -1.326888
     14          1           0        1.076687    2.177799   -0.182782
     15          1           0        2.413125    0.091681    0.025112
     16          1           0        1.310012    0.110485    1.413121
 ---------------------------------------------------------------------
                    Distance matrix (angstroms):
                    1          2          3          4          5
     1  C    0.000000
     2  C    1.503590   0.000000
     3  C    2.251484   1.487626   0.000000
     4  C    2.762806   2.219254   1.499767   0.000000
     5  C    2.387835   2.742901   2.374329   1.537507   0.000000
     6  O    1.438815   2.362283   2.762416   2.460446   1.450501
     7  H    2.760523   3.312608   2.609707   2.168463   1.102589
     8  H    3.296731   3.653330   3.367393   2.200901   1.090607
     9  H    3.095115   2.281072   2.156770   1.095022   2.196256
    10  H    3.790872   3.218224   2.171265   1.095065   2.189437
    11  H    3.229595   2.186328   1.095186   2.197942   3.368368
    12  H    2.261280   2.162750   1.095857   2.174898   2.464580
    13  H    2.175940   1.093996   2.170204   2.239187   2.880731
    14  H    2.176773   1.096318   2.173695   3.202964   3.820773
    15  H    1.091435   2.182900   3.254346   3.770443   3.316999
    16  H    1.101875   2.143177   2.311363   3.124971   2.691543
                    6          7          8          9         10
     6  O    0.000000
     7  H    2.101327   0.000000
     8  H    2.045579   1.769362   0.000000
     9  H    2.755362   3.093925   2.563545   0.000000
    10  H    3.414691   2.513186   2.571973   1.755487   0.000000
    11  H    3.848889   3.524906   4.290533   2.687071   2.482292
    12  H    2.837704   2.238453   3.528053   3.066475   2.687427
    13  H    2.523174   3.727553   3.536682   1.770967   3.230041
    14  H    3.328591   4.294716   4.748644   3.188113   4.106215
    15  H    2.052432   3.719300   4.084006   3.922205   4.831047
    16  H    2.105812   2.609266   3.697953   3.747799   3.986105
                   11         12         13         14         15
    11  H    0.000000
    12  H    1.745759   0.000000
    13  H    2.765830   3.048797   0.000000
    14  H    2.453098   2.739671   1.754626   0.000000
    15  H    4.143454   3.270255   2.667140   2.486197   0.000000
    16  H    3.195554   1.801429   3.063905   2.622048   1.773072
                   16
    16  H    0.000000
 Symmetry turned off by external request.
 Stoichiometry    C5H10O
 Framework group  C1[X(C5H10O)]
 Deg. of freedom    42
 Full point group                 C1      NOp   1
 Rotational constants (GHZ):      4.9073453      4.7036701      2.8830810
 Standard basis: 6-311+G(2df,p) (5D, 7F)
 Integral buffers will be    131072 words long.
 Raffenetti 2 integral format.
 Two-electron integral symmetry is turned off.
   264 basis functions,   392 primitive gaussians,   294 cartesian basis functions
    24 alpha electrons       24 beta electrons
       nuclear repulsion energy       265.7941590242 Hartrees.
 NAtoms=   16 NActive=   16 NUniq=   16 SFac= 1.00D+00 NAtFMM=   50 NAOKFM=F Big=F
 One-electron integrals computed using PRISM.
 NBasis=   264 RedAO= T  NBF=   264
 NBsUse=   264 1.00D-06 NBFU=   264
 Initial guess read from the read-write file.
 B after Tr=     0.000000    0.000000    0.000000
         Rot=    1.000000    0.000000    0.000000    0.000000 Ang=   0.00 deg.
 Harris functional with IExCor=  402 diagonalized for initial guess.
 ExpMin= 4.38D-02 ExpMax= 8.59D+03 ExpMxC= 1.30D+03 IAcc=3 IRadAn=         5 AccDes= 0.00D+00
 HarFok:  IExCor=  402 AccDes= 0.00D+00 IRadAn=         5 IDoV= 1
 ScaDFX=  1.000000  1.000000  1.000000  1.000000
 FoFCou: FMM=F IPFlag=           0 FMFlag=      100000 FMFlg1=           0
         NFxFlg=           0 DoJE=T BraDBF=F KetDBF=T FulRan=T
         Omega=  0.000000  0.000000  1.000000  0.000000  0.000000 ICntrl=     500 IOpCl=  0
         NMat0=    1 NMatS0=    1 NMatT0=    0 NMatD0=    1 NMtDS0=    0 NMtDT0=    0
         I1Cent=           4 NGrid=           0.
 Symmetry not used in FoFCou.
 Requested convergence on RMS density matrix=1.00D-08 within  64 cycles.
 Requested convergence on MAX density matrix=1.00D-06.
 Requested convergence on             energy=1.00D-06.
 No special actions if energy rises.
 Keep R1 ints in memory in canonical form, NReq=953761572.
 SCF Done:  E(RB3LYP) =  -271.812419715     A.U. after   11 cycles
             Convg  =    0.9847D-08             -V/T =  2.0034
 QCSCF skips out because SCF is already converged.
 Calling FoFJK, ICntrl=      2127 FMM=F ISym2X=0 I1Cent= 0 IOpClX= 0 NMat=1 NMatS=1 NMatT=0.
 -------------------------------------------------------------------
 Center     Atomic                   Forces (Hartrees/Bohr)
 Number     Number              X              Y              Z
 -------------------------------------------------------------------
      1        6           0.026654263   -0.017662393   -0.021435243
      2        6           0.042642250    0.033663561    0.024524476
      3        6          -0.038005443    0.037616377   -0.017253341
      4        6          -0.035276902   -0.027480016    0.019074426
      5        6           0.004137915   -0.005919319   -0.012657001
      6        8          -0.008175838   -0.001988978    0.013352316
      7        1           0.000906944    0.001219795   -0.003028923
      8        1           0.002904155   -0.000807089   -0.001707614
      9        1          -0.005284926   -0.004289157    0.006060559
     10        1          -0.001087659   -0.007862769    0.002298570
     11        1          -0.003268384   -0.000124985   -0.005191324
     12        1          -0.005290031    0.003303892   -0.005314031
     13        1           0.007356752    0.001404197    0.006857743
     14        1           0.004683796   -0.001597504    0.003750219
     15        1           0.000742945   -0.006587621   -0.003305750
     16        1           0.006360162   -0.002887991   -0.006025081
 -------------------------------------------------------------------
 Cartesian Forces:  Max     0.042642250 RMS     0.015530995

 GradGradGradGradGradGradGradGradGradGradGradGradGradGradGradGradGradGrad
 Berny optimization.
 Using GEDIIS/GDIIS optimizer.
 Internal  Forces:  Max     0.043519044 RMS     0.011462446
 Search for a local minimum.
 Step number   3 out of a maximum of   99
 All quantities printed in internal units (Hartrees-Bohrs-Radians)
 Mixed Optimization -- RFO/linear search
 Update second derivatives using D2CorX and points    3    2
 DE=  4.51D-02 DEPred=-4.89D-03 R=-9.22D+00
 Trust test=-9.22D+00 RLast= 4.16D+00 DXMaxT set to 2.52D-01
 ITU= -1  1  0
 Use linear search instead of GDIIS.
 Quartic linear search produced a step of -0.62236.
 Iteration  1 RMS(Cart)=  0.15207032 RMS(Int)=  0.16141412
 Iteration  2 RMS(Cart)=  0.10812315 RMS(Int)=  0.06391856
 Iteration  3 RMS(Cart)=  0.05947049 RMS(Int)=  0.00942768
 Iteration  4 RMS(Cart)=  0.00340468 RMS(Int)=  0.00875183
 Iteration  5 RMS(Cart)=  0.00001554 RMS(Int)=  0.00875182
 Iteration  6 RMS(Cart)=  0.00000008 RMS(Int)=  0.00875182
 Variable       Old X    -DE/DX   Delta X   Delta X   Delta X     New X
                                 (Linear)    (Quad)   (Total)
    R1        2.84137   0.02276   0.03429   0.00000   0.03693   2.87830
    R2        2.71897   0.00878  -0.02229   0.00000  -0.02814   2.69083
    R3        2.06251   0.00150  -0.00066   0.00000  -0.00066   2.06185
    R4        2.08224  -0.00639  -0.00105   0.00000  -0.00105   2.08120
    R5        2.81121   0.04352   0.06955   0.00000   0.07862   2.88983
    R6        2.06735  -0.00836  -0.00067   0.00000  -0.00067   2.06669
    R7        2.07174   0.00107  -0.00351   0.00000  -0.00351   2.06823
    R8        2.83415   0.03115   0.04884   0.00000   0.05449   2.88864
    R9        2.06960   0.00071  -0.00396   0.00000  -0.00396   2.06564
   R10        2.07087  -0.00719  -0.00187   0.00000  -0.00187   2.06900
   R11        2.90547   0.00925  -0.01718   0.00000  -0.02061   2.88486
   R12        2.06929  -0.00722  -0.00126   0.00000  -0.00126   2.06804
   R13        2.06937   0.00196  -0.00125   0.00000  -0.00125   2.06812
   R14        2.74105   0.01357  -0.03399   0.00000  -0.04308   2.69797
   R15        2.08359  -0.00330  -0.00162   0.00000  -0.00162   2.08198
   R16        2.06095   0.00049   0.00087   0.00000   0.00087   2.06182
    A1        1.86373   0.00239   0.06076   0.00000   0.07802   1.94175
    A2        1.98237   0.00379  -0.03426   0.00000  -0.04119   1.94118
    A3        1.91505   0.00331   0.01121   0.00000   0.01007   1.92512
    A4        1.87844   0.00448  -0.01713   0.00000  -0.02576   1.85268
    A5        1.94199  -0.01204  -0.02108   0.00000  -0.02361   1.91838
    A6        1.88284  -0.00241  -0.00200   0.00000  -0.00024   1.88260
    A7        1.70428   0.01665   0.17370   0.00000   0.21008   1.91436
    A8        1.96947  -0.01775  -0.03920   0.00000  -0.04827   1.92121
    A9        1.96810   0.00302  -0.05085   0.00000  -0.06372   1.90438
   A10        1.98163  -0.01302  -0.03712   0.00000  -0.04468   1.93695
   A11        1.98408   0.00725  -0.05023   0.00000  -0.06382   1.92026
   A12        1.85821   0.00356  -0.00032   0.00000   0.00774   1.86595
   A13        1.67469   0.01994   0.19738   0.00000   0.23745   1.91214
   A14        2.00391   0.00508  -0.07028   0.00000  -0.08632   1.91759
   A15        1.96876  -0.01556  -0.03172   0.00000  -0.03951   1.92925
   A16        2.00508   0.00197  -0.06774   0.00000  -0.08259   1.92249
   A17        1.97077  -0.01737  -0.03564   0.00000  -0.04443   1.92635
   A18        1.84386   0.00488   0.00238   0.00000   0.01162   1.85548
   A19        1.79475   0.00323   0.09778   0.00000   0.12110   1.91585
   A20        1.94587  -0.00100  -0.01156   0.00000  -0.01685   1.92903
   A21        1.96644   0.00429  -0.03209   0.00000  -0.04078   1.92566
   A22        1.95450  -0.01204  -0.03989   0.00000  -0.04389   1.91061
   A23        1.94490   0.00511  -0.02025   0.00000  -0.03017   1.91473
   A24        1.85980   0.00023   0.00314   0.00000   0.00758   1.86738
   A25        1.93431   0.00952  -0.00107   0.00000   0.01033   1.94464
   A26        1.90827   0.00138   0.01555   0.00000   0.01330   1.92158
   A27        1.96583  -0.00417  -0.01276   0.00000  -0.01583   1.95001
   A28        1.92050  -0.00605  -0.00827   0.00000  -0.01017   1.91033
   A29        1.85628  -0.00248   0.00349   0.00000  -0.00216   1.85412
   A30        1.87724   0.00129   0.00254   0.00000   0.00362   1.88086
   A31        1.94549   0.01224  -0.00079   0.00000   0.01279   1.95828
    D1        1.34173  -0.02635  -0.34993   0.00000  -0.34186   0.99987
    D2       -0.74554  -0.01367  -0.39127   0.00000  -0.39061  -1.13614
    D3       -2.85190  -0.00748  -0.33404   0.00000  -0.32678   3.10451
    D4       -2.87369  -0.01704  -0.35303   0.00000  -0.34816   3.06133
    D5        1.32223  -0.00435  -0.39437   0.00000  -0.39691   0.92531
    D6       -0.78414   0.00183  -0.33714   0.00000  -0.33308  -1.11722
    D7       -0.76497  -0.01517  -0.37054   0.00000  -0.36879  -1.13375
    D8       -2.85223  -0.00248  -0.41187   0.00000  -0.41754   3.01342
    D9        1.32459   0.00371  -0.35464   0.00000  -0.35370   0.97088
   D10       -0.98476   0.00305  -0.06099   0.00000  -0.06826  -1.05301
   D11       -3.11920  -0.00530  -0.04414   0.00000  -0.04794   3.11605
   D12        1.10465   0.00171  -0.02091   0.00000  -0.02014   1.08451
   D13       -1.52346   0.02982   0.58140   0.00000   0.57598  -0.94748
   D14        2.64875   0.01349   0.57902   0.00000   0.57269  -3.06174
   D15        0.53497   0.01536   0.64296   0.00000   0.64410   1.17907
   D16        0.55454   0.01361   0.62323   0.00000   0.62461   1.17915
   D17       -1.55644  -0.00272   0.62085   0.00000   0.62132  -0.93511
   D18        2.61296  -0.00085   0.68479   0.00000   0.69273  -2.97749
   D19        2.68236   0.01384   0.56385   0.00000   0.55837  -3.04245
   D20        0.57138  -0.00249   0.56147   0.00000   0.55508   1.12647
   D21       -1.54240  -0.00062   0.62541   0.00000   0.62649  -0.91591
   D22        1.36763  -0.02754  -0.43613   0.00000  -0.42863   0.93901
   D23       -0.72943  -0.01472  -0.44197   0.00000  -0.44076  -1.17019
   D24       -2.81965  -0.01728  -0.41758   0.00000  -0.41236   3.05117
   D25       -2.80548  -0.00878  -0.43500   0.00000  -0.42740   3.05031
   D26        1.38064   0.00405  -0.44084   0.00000  -0.43953   0.94111
   D27       -0.70958   0.00149  -0.41645   0.00000  -0.41114  -1.12071
   D28       -0.68919  -0.01454  -0.50012   0.00000  -0.50009  -1.18928
   D29       -2.78625  -0.00172  -0.50596   0.00000  -0.51222   2.98471
   D30        1.40672  -0.00428  -0.48157   0.00000  -0.48383   0.92289
   D31       -1.03039   0.00776   0.05369   0.00000   0.04759  -0.98280
   D32        1.08958   0.00725   0.05297   0.00000   0.05055   1.14013
   D33       -3.10763   0.00714   0.05836   0.00000   0.05386  -3.05377
   D34        1.06072   0.00256   0.07651   0.00000   0.07676   1.13748
   D35       -3.10250   0.00205   0.07580   0.00000   0.07972  -3.02278
   D36       -1.01653   0.00194   0.08119   0.00000   0.08303  -0.93350
   D37       -3.14110  -0.00180   0.04345   0.00000   0.03956  -3.10154
   D38       -1.02113  -0.00231   0.04273   0.00000   0.04252  -0.97861
   D39        1.06484  -0.00242   0.04812   0.00000   0.04583   1.11067
   D40        0.83103   0.00874   0.21221   0.00000   0.21362   1.04464
   D41       -1.28173   0.00479   0.19893   0.00000   0.19693  -1.08480
   D42        2.97318   0.00770   0.19823   0.00000   0.19896  -3.11105
         Item               Value     Threshold  Converged?
 Maximum Force            0.043519     0.000015     NO 
 RMS     Force            0.011462     0.000010     NO 
 Maximum Displacement     1.170035     0.000060     NO 
 RMS     Displacement     0.299399     0.000040     NO 
 Predicted change in Energy=-4.346745D-02
 GradGradGradGradGradGradGradGradGradGradGradGradGradGradGradGradGradGrad

                          Input orientation:                          
 ---------------------------------------------------------------------
 Center     Atomic      Atomic             Coordinates (Angstroms)
 Number     Number       Type             X           Y           Z
 ---------------------------------------------------------------------
      1          6           0        1.408782   -0.021510    0.205875
      2          6           0        0.687366    1.289763   -0.077058
      3          6           0       -0.748457    1.210423    0.443198
      4          6           0       -1.440204   -0.017315   -0.149058
      5          6           0       -0.603977   -1.264395    0.126669
      6          8           0        0.723725   -1.124213   -0.379194
      7          1           0       -0.564979   -1.462213    1.209796
      8          1           0       -1.023442   -2.147277   -0.358099
      9          1           0       -1.573643    0.100999   -1.228787
     10          1           0       -2.437487   -0.138308    0.285116
     11          1           0       -1.293224    2.117909    0.170166
     12          1           0       -0.758607    1.163026    1.536994
     13          1           0        0.703998    1.503606   -1.149462
     14          1           0        1.221008    2.106601    0.418773
     15          1           0        2.410502   -0.022466   -0.226587
     16          1           0        1.509402   -0.175714    1.291695
 ---------------------------------------------------------------------
                    Distance matrix (angstroms):
                    1          2          3          4          5
     1  C    0.000000
     2  C    1.523132   0.000000
     3  C    2.495529   1.529232   0.000000
     4  C    2.871013   2.498038   1.528601   0.000000
     5  C    2.366904   2.869285   2.499158   1.526601   0.000000
     6  O    1.423925   2.433083   2.879961   2.441470   1.427704
     7  H    2.641820   3.285991   2.786453   2.168003   1.101734
     8  H    3.279125   3.849558   3.462924   2.180396   1.091069
     9  H    3.311816   2.802108   2.169629   1.094358   2.154487
    10  H    3.848858   3.454746   2.167230   1.094404   2.157530
    11  H    3.446625   2.160945   1.093091   2.163952   3.452091
    12  H    2.805811   2.170729   1.094869   2.168075   2.811636
    13  H    2.158620   1.093644   2.175350   2.812759   3.316796
    14  H    2.146962   1.094461   2.163914   3.451884   3.844413
    15  H    1.091085   2.171059   3.456537   3.851490   3.279368
    16  H    1.101321   2.167222   2.781951   3.286493   2.647429
                    6          7          8          9         10
     6  O    0.000000
     7  H    2.073618   0.000000
     8  H    2.024770   1.771383   0.000000
     9  H    2.738769   3.067202   2.472967   0.000000
    10  H    3.377362   2.472659   2.539528   1.759374   0.000000
    11  H    3.857620   3.798479   4.306234   2.470552   2.532403
    12  H    3.331748   2.652627   3.823561   3.072740   2.465625
    13  H    2.738455   3.996559   4.115732   2.676051   3.823981
    14  H    3.364848   4.068403   4.872019   3.814049   4.294423
    15  H    2.020484   3.604102   4.040308   4.110117   4.876295
    16  H    2.075767   2.442303   3.608903   3.991813   4.073393
                   11         12         13         14         15
    11  H    0.000000
    12  H    1.750953   0.000000
    13  H    2.471373   3.077702   0.000000
    14  H    2.526519   2.461630   1.757915   0.000000
    15  H    4.296068   3.815607   2.468349   2.522759   0.000000
    16  H    3.791206   2.645044   3.070511   2.460513   1.772187
                   16
    16  H    0.000000
 Symmetry turned off by external request.
 Stoichiometry    C5H10O
 Framework group  C1[X(C5H10O)]
 Deg. of freedom    42
 Full point group                 C1      NOp   1
 Rotational constants (GHZ):      4.6647782      4.5181604      2.6065601
 Standard basis: 6-311+G(2df,p) (5D, 7F)
 Integral buffers will be    131072 words long.
 Raffenetti 2 integral format.
 Two-electron integral symmetry is turned off.
   264 basis functions,   392 primitive gaussians,   294 cartesian basis functions
    24 alpha electrons       24 beta electrons
       nuclear repulsion energy       260.0892569578 Hartrees.
 NAtoms=   16 NActive=   16 NUniq=   16 SFac= 1.00D+00 NAtFMM=   50 NAOKFM=F Big=F
 One-electron integrals computed using PRISM.
 NBasis=   264 RedAO= T  NBF=   264
 NBsUse=   264 1.00D-06 NBFU=   264
 Initial guess read from the read-write file.
 B after Tr=     0.000000    0.000000    0.000000
         Rot=    1.000000    0.000000    0.000000    0.000000 Ang=   0.00 deg.
 Harris functional with IExCor=  402 diagonalized for initial guess.
 ExpMin= 4.38D-02 ExpMax= 8.59D+03 ExpMxC= 1.30D+03 IAcc=3 IRadAn=         5 AccDes= 0.00D+00
 HarFok:  IExCor=  402 AccDes= 0.00D+00 IRadAn=         5 IDoV= 1
 ScaDFX=  1.000000  1.000000  1.000000  1.000000
 FoFCou: FMM=F IPFlag=           0 FMFlag=      100000 FMFlg1=           0
         NFxFlg=           0 DoJE=T BraDBF=F KetDBF=T FulRan=T
         Omega=  0.000000  0.000000  1.000000  0.000000  0.000000 ICntrl=     500 IOpCl=  0
         NMat0=    1 NMatS0=    1 NMatT0=    0 NMatD0=    1 NMtDS0=    0 NMtDT0=    0
         I1Cent=           4 NGrid=           0.
 Symmetry not used in FoFCou.
 Requested convergence on RMS density matrix=1.00D-08 within  64 cycles.
 Requested convergence on MAX density matrix=1.00D-06.
 Requested convergence on             energy=1.00D-06.
 No special actions if energy rises.
 Keep R1 ints in memory in canonical form, NReq=953761874.
 SCF Done:  E(RB3LYP) =  -271.861209862     A.U. after   11 cycles
             Convg  =    0.7897D-08             -V/T =  2.0045
 QCSCF skips out because SCF is already converged.
 Calling FoFJK, ICntrl=      2127 FMM=F ISym2X=0 I1Cent= 0 IOpClX= 0 NMat=1 NMatS=1 NMatT=0.
 -------------------------------------------------------------------
 Center     Atomic                   Forces (Hartrees/Bohr)
 Number     Number              X              Y              Z
 -------------------------------------------------------------------
      1        6           0.000815025   -0.000657966   -0.005020151
      2        6           0.002797005    0.002779398    0.008596792
      3        6          -0.002730989    0.005009977   -0.008270137
      4        6          -0.002341838   -0.002445056    0.004840739
      5        6           0.001763637    0.000290829   -0.002527945
      6        8          -0.001757834   -0.001215211    0.003243144
      7        1           0.000134775    0.000390345   -0.000251361
      8        1           0.000589867    0.000058396   -0.000519272
      9        1           0.001167706    0.000214664    0.000001013
     10        1          -0.000384355   -0.001175636   -0.000142342
     11        1          -0.000852892    0.000599910    0.000603527
     12        1           0.001315611   -0.001558513    0.000369109
     13        1          -0.001028306   -0.001695015   -0.000383509
     14        1           0.001026553    0.000534161   -0.000378928
     15        1           0.000225647   -0.000981983   -0.000053493
     16        1          -0.000739613   -0.000148300   -0.000107187
 -------------------------------------------------------------------
 Cartesian Forces:  Max     0.008596792 RMS     0.002470627

 GradGradGradGradGradGradGradGradGradGradGradGradGradGradGradGradGradGrad
 Berny optimization.
 Using GEDIIS/GDIIS optimizer.
 Internal  Forces:  Max     0.002616668 RMS     0.000901671
 Search for a local minimum.
 Step number   4 out of a maximum of   99
 All quantities printed in internal units (Hartrees-Bohrs-Radians)
 Mixed Optimization -- En-DIIS/RFO-DIIS
 Update second derivatives using D2CorX and points    2    4
 ITU=  0 -1  1  0
 Use linear search instead of GDIIS.
     Eigenvalues ---    0.00328   0.00630   0.01320   0.02571   0.03081
     Eigenvalues ---    0.04336   0.04668   0.04808   0.05034   0.05078
     Eigenvalues ---    0.05777   0.06130   0.06618   0.07442   0.07786
     Eigenvalues ---    0.07821   0.07876   0.08579   0.10679   0.11681
     Eigenvalues ---    0.11712   0.12001   0.12876   0.16432   0.16747
     Eigenvalues ---    0.22303   0.26957   0.27675   0.28093   0.29859
     Eigenvalues ---    0.33542   0.33588   0.34319   0.34364   0.34386
     Eigenvalues ---    0.34404   0.34463   0.34657   0.34679   0.34819
     Eigenvalues ---    0.40615   0.41230
 RFO step:  Lambda=-7.30131406D-04 EMin= 3.27999449D-03
 Quartic linear search produced a step of -0.12754.
 Iteration  1 RMS(Cart)=  0.01376064 RMS(Int)=  0.00053075
 Iteration  2 RMS(Cart)=  0.00019835 RMS(Int)=  0.00051551
 Iteration  3 RMS(Cart)=  0.00000004 RMS(Int)=  0.00051551
 Variable       Old X    -DE/DX   Delta X   Delta X   Delta X     New X
                                 (Linear)    (Quad)   (Total)
[...]
 ! D13   D(1,2,3,4)            -51.3078         -DE/DX =    0.0                 !
 ! D14   D(1,2,3,11)          -174.1379         -DE/DX =    0.0                 !
 ! D15   D(1,2,3,12)            68.7594         -DE/DX =    0.0                 !
 ! D16   D(13,2,3,4)            68.6686         -DE/DX =    0.0                 !
 ! D17   D(13,2,3,11)          -54.1615         -DE/DX =    0.0                 !
 ! D18   D(13,2,3,12)         -171.2642         -DE/DX =    0.0                 !
 ! D19   D(14,2,3,4)          -172.9474         -DE/DX =    0.0                 !
 ! D20   D(14,2,3,11)           64.2225         -DE/DX =    0.0                 !
 ! D21   D(14,2,3,12)          -52.8802         -DE/DX =    0.0                 !
 ! D22   D(2,3,4,5)             51.3104         -DE/DX =    0.0                 !
 ! D23   D(2,3,4,9)            -68.6684         -DE/DX =    0.0                 !
 ! D24   D(2,3,4,10)           172.9545         -DE/DX =    0.0                 !
 ! D25   D(11,3,4,5)           174.1427         -DE/DX =    0.0                 !
 ! D26   D(11,3,4,9)            54.1639         -DE/DX =    0.0                 !
 ! D27   D(11,3,4,10)          -64.2132         -DE/DX =    0.0                 !
 ! D28   D(12,3,4,5)           -68.7564         -DE/DX =    0.0                 !
 ! D29   D(12,3,4,9)           171.2648         -DE/DX =    0.0                 !
 ! D30   D(12,3,4,10)           52.8877         -DE/DX =    0.0                 !
 ! D31   D(3,4,5,6)            -55.2456         -DE/DX =    0.0                 !
 ! D32   D(3,4,5,7)             66.5208         -DE/DX =    0.0                 !
 ! D33   D(3,4,5,8)           -173.8016         -DE/DX =    0.0                 !
 ! D34   D(9,4,5,6)             65.3594         -DE/DX =    0.0                 !
 ! D35   D(9,4,5,7)           -172.8742         -DE/DX =    0.0                 !
 ! D36   D(9,4,5,8)            -53.1966         -DE/DX =    0.0                 !
 ! D37   D(10,4,5,6)          -177.7264         -DE/DX =    0.0                 !
 ! D38   D(10,4,5,7)           -55.9599         -DE/DX =    0.0                 !
 ! D39   D(10,4,5,8)            63.7177         -DE/DX =    0.0                 !
 ! D40   D(4,5,6,1)             59.6521         -DE/DX =    0.0                 !
 ! D41   D(7,5,6,1)            -62.4466         -DE/DX =    0.0                 !
 ! D42   D(8,5,6,1)           -178.5824         -DE/DX =    0.0                 !
 --------------------------------------------------------------------------------
 GradGradGradGradGradGradGradGradGradGradGradGradGradGradGradGradGradGrad

 1\1\GINC-NODE009\Freq\RB3LYP\6-311+G(2df,p)\C5H10O1\HGO357\24-Oct-2012
 \0\\#N Geom=AllCheck Guess=TCheck SCRF=Check GenChk RB3LYP/6-311+G(2df
 ,p) Freq\\from irc\\0,1\C,1.4100026901,-0.024113353,0.2007729808\C,0.6
 936307773,1.2977610343,-0.0605812339\C,-0.7568703771,1.2249250855,0.42
 8555815\C,-1.4454558687,-0.0205338385,-0.1400747036\C,-0.6010655949,-1
 .2635241291,0.1259765696\O,0.7204488136,-1.1238471454,-0.3783876648\H,
 -0.5600197723,-1.4659394513,1.2083428929\H,-1.0192464436,-2.143812578,
 -0.3645833874\H,-1.5797279712,0.0899971784,-1.2211180571\H,-2.43956462
 18,-0.1526818694,0.2980712227\H,-1.3042501285,2.1297469393,0.151597497
 9\H,-0.7671803019,1.1756146419,1.5241772071\H,0.7133662709,1.503171865
 6,-1.1358975462\H,1.2334793182,2.1107995815,0.434608507\H,2.4094040294
 ,-0.0309355347,-0.2369304754\H,1.5138111803,-0.1877114269,1.2855073755
 \\Version=AM64L-G09RevB.01\HF=-271.8616718\RMSD=1.553e-09\RMSF=1.020e-
 06\ZeroPoint=0.1457281\Thermal=0.151202\Dipole=-0.2809732,0.4366825,0.
 3187849\DipoleDeriv=0.4382635,0.1329532,0.0852979,0.2100827,0.6128748,
 0.0897322,0.1865217,0.106222,0.4360806,0.0312332,0.0883956,0.0268018,0
 .0204275,-0.0142235,0.0093736,-0.0178574,0.0217229,0.1299756,0.0671542
 ,-0.0127055,0.0092197,-0.0115777,0.0797038,-0.0205328,-0.0092378,0.009
 4529,0.1517018,0.0406088,0.0161539,-0.0246857,0.0861394,-0.0217968,-0.
 0201298,-0.0133747,0.0215996,0.1282029,0.7303714,0.080739,-0.0999576,0
 .0012695,0.3409961,-0.0389487,-0.1627924,-0.1177367,0.4158055,-0.95162
 33,-0.1974215,0.0275895,-0.1971803,-0.7475329,-0.0794694,0.0236802,-0.
 0730439,-0.4982201,-0.0325006,0.0100291,-0.0450064,0.015912,0.0217599,
 0.0181964,0.0501147,0.1030986,-0.2133781,-0.016407,-0.055965,-0.016666
 9,-0.0746422,-0.116908,-0.0527101,-0.038137,-0.0971851,0.0260696,0.050
 1454,0.0012289,-0.0058003,0.0100639,-0.0032545,0.0224753,-0.0609603,0.
 0131581,-0.1569511,-0.1655135,-0.0427427,0.054485,-0.0436,0.0247305,0.
 008682,0.0989177,0.0116,0.0298297,-0.0399831,0.0951855,-0.0120574,0.09
 63057,-0.1390845,0.0176445,-0.0306913,0.0478818,0.050013,0.0104646,-0.
 0247027,-0.0132873,-0.0266111,0.0359703,0.0322172,0.01831,-0.0190411,-
 0.1822113,0.0116579,0.0261579,-0.0075157,0.0186789,0.0320396,0.022637,
 0.0253205,0.068129,-0.1537424,-0.0433064,-0.0966231,-0.0393783,-0.0970
 833,-0.0878012,-0.0539376,-0.0619561,-0.092323,0.0201881,-0.1570984,-0
 .0089842,0.0444275,0.0079727,0.0163443,-0.0087706,0.0943831,-0.0105481
 ,0.0334903,0.0265335,-0.0116984,0.0165342,-0.0161578,-0.0338179,0.0535
 406,-0.1022408,0.007013,-0.216854\Polar=66.5910655,2.3187837,64.257484
 9,0.2709909,0.2001454,57.420356\PG=C01 [X(C5H10O1)]\NImag=0\\0.5904752
 2,-0.00893264,0.41853487,-0.05981541,-0.02451899,0.55755327,-0.1110988
 3,0.04639503,-0.01049521,0.46729055,0.03940636,-0.14137960,0.02126084,
 0.05291738,0.51602814,-0.01075849,0.02518280,-0.08801814,0.03010617,0.
 01955859,0.57690243,-0.02339735,0.00974260,0.00627119,-0.16259568,-0.0
 0324520,0.03007628,0.46260005,0.03392816,0.00288668,-0.00969754,-0.003
 69290,-0.08148864,0.00240655,-0.06416350,0.52946674,-0.00527003,-0.003
 11851,0.00368243,0.02979351,0.00209017,-0.09298701,0.01474421,-0.03185
 406,0.55424008,0.00193534,0.00383594,-0.00035233,-0.02062065,-0.029933
 89,-0.01205404,-0.09891096,-0.03247625,-0.01663208,0.55212347,0.000664
 74,0.00146305,0.00001781,-0.00878872,-0.00152775,0.00062164,-0.0329609
 1,-0.14125880,-0.02904418,0.01414942,0.43545673,-0.00170053,-0.0009506
 6,-0.00012009,0.00311242,0.00919036,0.00613123,-0.01708555,-0.02909674
 ,-0.09655155,-0.03186282,-0.02210941,0.57214525,-0.03536614,-0.0204658
 3,0.00167037,0.00324975,0.00296678,0.00190179,0.01450969,-0.00925069,0
 .00543121,-0.09913142,0.04086821,-0.01694323,0.44100650,-0.03596668,-0
 .00765264,0.01116794,-0.00009283,-0.00006511,0.00108439,0.01419637,-0.
 03541487,0.00275240,0.03346759,-0.15275079,0.02068537,0.05980421,0.559
 75717,-0.01402364,0.00205346,0.00380480,0.00032544,0.00049560,0.000035
 85,0.00692722,-0.01182729,0.00405143,-0.01378654,0.01906249,-0.0883634
 1,0.04447506,0.04568883,0.56551181,-0.10940442,-0.05499144,-0.02700158
 ,0.00945784,0.00172537,0.00289656,-0.00147123,-0.00561042,0.00001937,-
 0.04078889,0.00211550,0.01635328,-0.17895989,0.00202836,0.05944060,0.3
 9012135,-0.02912565,-0.14727922,-0.05749847,-0.02212375,-0.04186850,-0
 .02232732,-0.00560660,0.00420567,-0.00029455,0.02703346,0.00773042,-0.
 01108851,-0.02410149,-0.08255033,-0.00243883,0.10358982,0.27843585,-0.
 00358705,-0.04798720,-0.10196005,0.00044020,-0.00388170,0.00360744,-0.
 00014867,-0.00002093,-0.00028890,0.00176356,-0.00187395,0.00422439,0.0
 3959254,-0.01767546,-0.09703145,-0.04784167,0.09267434,0.20265280,0.00
 366142,0.00376173,0.00520649,-0.00036192,-0.00036347,-0.00048287,0.000
 00595,-0.00103288,0.00016771,-0.00056335,0.00419518,-0.01943819,-0.048
 54098,0.00068567,-0.02375886,-0.01710676,-0.01012858,0.04008826,0.0619
 9815,0.00055523,0.00053177,0.00258712,-0.00011418,-0.00036700,-0.00011
 800,-0.00031824,0.00170759,0.00130598,0.00416666,-0.00582173,0.0276814
 1,0.00207112,-0.06106880,0.03651205,-0.00403145,0.00202805,0.00368093,
 -0.00376308,0.05992235,-0.00219650,-0.00257337,0.00056471,0.00033340,0
 .00015658,0.00020677,0.00049784,-0.00056729,0.00033543,-0.00229527,0.0
 0072329,-0.00734282,-0.02191194,0.03851446,-0.26897554,0.01718266,0.00
 380237,-0.01461395,0.01108987,-0.04583280,0.29978377,-0.00437892,0.001
 59886,0.00404137,-0.00063984,-0.00010744,-0.00014973,-0.00240682,0.003
 08426,-0.00145213,0.00952010,0.01533690,0.00884359,-0.07778097,-0.0700
 4983,-0.04139563,-0.02686343,-0.03137629,-0.01338431,0.00088765,-0.001
 55483,-0.00247579,0.10063389,0.00042486,0.00178562,0.00135324,0.000299
 69,0.00051005,-0.00014516,0.00462536,-0.00282322,0.00219446,-0.0091919
 5,-0.02107273,-0.01297273,-0.07694178,-0.21723662,-0.09684436,-0.00622
 095,-0.00148332,0.00011971,0.00277571,0.00582168,0.00221078,0.08535973
 ,0.23430545,0.00189531,0.00031141,-0.00052167,0.00020154,0.00014736,0.
 00007708,-0.00064393,0.00068181,0.00034023,0.00217035,0.00749488,0.003
 36520,-0.04894841,-0.10210060,-0.11085482,0.00880576,0.01282792,0.0073
 5370,-0.01106664,-0.02459654,-0.01392836,0.04609843,0.10482847,0.11158
 593,-0.00043409,-0.00024045,-0.00032653,0.00063195,0.00065780,-0.00100
 557,-0.00198234,0.00118998,-0.01468514,-0.05339873,0.00166432,-0.02660
 212,-0.00327233,0.00378943,-0.01922082,0.00198002,-0.00093322,0.000410
 46,-0.00130037,0.00297793,-0.00080428,0.00058252,-0.00059675,0.0006648
 2,0.05309605,-0.00008479,-0.00040243,-0.00007454,0.00110890,0.00098303
 ,-0.00007289,-0.00354649,0.00105169,-0.02936740,0.00267068,-0.04881570
 ,0.02473524,0.00327687,-0.00626435,0.03120810,-0.00160290,0.00208935,-
 0.00202614,0.00403771,-0.00411425,0.00085780,-0.00073587,0.00106897,-0
 .00009266,-0.00293576,0.05852828,-0.00007204,0.00004250,0.00006762,0.0
 0047220,0.00057196,0.00032003,-0.00132783,-0.00023455,-0.01330136,-0.0
 2851930,0.02582083,-0.29195897,0.00029126,0.00194564,-0.00773490,-0.00
 072921,-0.00110708,0.00180062,-0.00047668,0.00111240,0.00128529,-0.000
 00292,0.00052536,0.00083585,0.03264632,-0.02733142,0.31921583,0.001265
 94,0.00066847,0.00069650,0.00056935,-0.00297167,-0.00213953,-0.0125926
 8,-0.00171371,0.00529963,-0.25348498,-0.02486791,0.09288514,-0.0157929
 6,-0.00523398,0.00872031,-0.00299830,0.00413876,-0.00125927,0.00052471
 ,-0.00016607,-0.00085062,0.00043827,0.00045712,0.00022625,0.00421174,0
 .00046500,-0.00080485,0.27769598,-0.00056087,-0.00214140,-0.00061742,-
 0.00156104,-0.00470922,-0.00336084,-0.02594009,-0.00264036,0.01202101,
 -0.02525873,-0.05122464,0.01336305,0.02218943,0.00669204,-0.01253446,0
 .00708212,-0.00424198,0.00102708,-0.00065858,0.00103794,0.00043359,-0.
 00100734,0.00045729,-0.00052811,-0.00326705,-0.00096550,0.00148157,0.0
 2908228,0.05526413,0.00000397,-0.00012317,-0.00011045,-0.00072566,-0.0
 0221191,-0.00062472,-0.01349000,-0.00162713,0.00467953,0.09504196,0.01
 308622,-0.09099151,-0.00611900,-0.00089416,0.00095501,-0.00086341,0.00
 087961,0.00152566,0.00022973,-0.00052079,0.00027721,0.00022101,-0.0002
 7408,0.00006500,0.02876454,0.00313925,-0.01249004,-0.10267160,-0.01238
 147,0.09508598,-0.00671635,-0.00369936,0.00291997,-0.01662444,0.027169
 29,-0.00904393,-0.11018443,0.10480465,-0.03375400,0.00907820,-0.014009
 39,0.00490064,-0.00242416,-0.00292316,-0.00122299,0.00160411,0.0006204
 1,-0.00008753,-0.00006896,0.00009818,-0.00007298,0.00061558,-0.0008978
 2,-0.00002933,0.00056591,0.00073077,0.00028521,0.00061435,0.00060052,0
 .00051938,0.12190313,-0.00096197,0.00080162,-0.00032693,-0.00123482,0.
 00331843,-0.00105419,0.10486652,-0.22036061,0.05598054,0.01329810,-0.0
 2286469,0.00749159,-0.00555352,-0.00318168,-0.00314910,0.00062778,0.00
 094486,0.00026168,-0.00014875,0.00031965,0.00001959,0.00125768,-0.0013
 4517,0.00015623,0.00030107,0.00115784,-0.00043174,-0.00026847,0.000664
 18,0.00057312,-0.11325390,0.24085964,0.00193577,0.00101942,-0.00043279
 ,0.00711239,-0.01048484,0.00233839,-0.03474357,0.05759232,-0.06695739,
 0.00698911,-0.01268184,0.00281559,-0.00207192,-0.00152104,-0.00074151,
 -0.00024218,0.00050970,0.00000504,0.00020597,-0.00044347,0.00031672,0.
 00030995,-0.00058759,0.00035052,0.00060706,0.00032171,0.00062845,0.000
 04246,0.00076041,0.00016516,0.03664181,-0.06040010,0.06915272,0.001891
 67,-0.00088320,0.00096228,-0.00251011,-0.00256263,0.03385705,-0.047186
 17,0.00226474,0.00052874,-0.00140859,-0.00011173,-0.01728829,-0.000048
 11,0.00078989,0.00062953,-0.00016028,0.00019937,-0.00028620,0.00030680
 ,-0.00008922,0.00036939,-0.00011337,0.00008875,0.00012615,-0.00066028,
 -0.00328782,-0.00117734,0.00038438,0.00061291,-0.00003979,-0.00008236,
 0.00046055,-0.01625023,0.05413023,-0.00009412,-0.00000084,-0.00115801,
 -0.00069105,-0.00077247,0.00294812,0.00222931,-0.05022946,0.01395152,-
 0.00099380,0.00006804,-0.02862343,0.00014568,0.00189515,-0.00129312,0.
 00016684,-0.00034724,0.00044947,0.00020477,-0.00025696,0.00066845,-0.0
 0018801,0.00019280,0.00039836,-0.00231765,-0.00422538,-0.00227310,0.00
 034609,0.00121999,0.00066110,-0.00048846,-0.00123011,0.02688390,0.0023
 3769,0.05250374,-0.00097303,0.00043287,-0.00018165,0.00147290,0.001263
 19,-0.01165438,0.00108462,0.01303734,-0.29113241,-0.00127482,-0.000377
 60,-0.01367381,0.00006579,0.00117523,-0.00014089,0.00024302,-0.0004108
 7,0.00020078,0.00056129,-0.00069005,0.00062074,-0.00001702,-0.00010364
 ,0.00038386,-0.00126682,-0.00222237,0.00060892,-0.00044966,-0.00011413
 ,0.00080857,-0.00051126,0.00134831,-0.00899433,-0.00186363,-0.01294575
 ,0.32052796,-0.00170760,0.00364594,-0.01882473,-0.04759198,-0.00212551
 ,0.00295041,-0.00235345,-0.00544826,0.03325036,0.00163164,0.00059711,0
 .00060809,-0.00054823,-0.00004607,0.00017905,0.00088718,-0.00119788,0.
 00153573,-0.00017490,0.00003808,-0.00016059,0.00009111,-0.00006718,-0.
 00000058,-0.00021301,-0.00031325,-0.00069175,0.00011063,0.00036903,-0.
 00038903,0.00146816,0.00032518,-0.00050648,-0.00601148,-0.00080341,0.0
 0217264,0.05478358,0.00192924,-0.00776638,0.03136681,-0.00299751,-0.05
 684990,0.04261424,0.00040071,-0.00047288,0.00031805,0.00013811,-0.0000
 3951,0.00086581,-0.00019862,-0.00031355,0.00023401,-0.00045531,0.00305
 184,-0.00127012,0.00010552,0.00008037,-0.00017747,-0.00003236,-0.00001
 064,-0.00002715,-0.00024217,0.00004393,-0.00002480,-0.00000648,0.00000
 456,-0.00011778,-0.00013348,0.00029994,-0.00041470,0.00016055,0.000864
 48,0.00014758,-0.00154447,0.05960144,-0.00147901,0.00080923,-0.0077882
 8,0.00279571,0.04483747,-0.28972167,0.00140952,0.00121651,-0.01141388,
 -0.00064652,-0.00014604,0.00033415,-0.00004476,0.00007392,0.00008890,0
 .00126021,0.00013257,0.00191806,-0.00005941,-0.00016087,-0.00010239,0.
 00001082,0.00006843,-0.00000642,0.00028322,0.00057706,0.00050930,0.000
 07963,-0.00003383,0.00027946,0.00029742,-0.00044167,0.00058836,0.00220
 907,-0.00000657,0.00087010,-0.00453844,-0.05023150,0.31646286,0.008356
 79,0.00921003,0.00799774,-0.10621269,-0.09002792,-0.05747349,-0.015368
 84,-0.02445018,-0.01502054,-0.00578561,0.00136309,0.00373292,-0.001428
 04,0.00077770,0.00019411,0.00055069,0.00526023,-0.00023115,0.00020952,
 -0.00005400,0.00000807,0.00025635,-0.00002113,-0.00008722,0.00015674,0
 .00032237,-0.00000164,-0.00082706,-0.00189196,-0.00055965,0.00086313,0
 .00054555,-0.00064314,0.00145096,0.00005473,0.00034054,-0.00018237,0.0
 0069122,-0.00027741,0.11717190,-0.01704050,-0.01775260,-0.01499627,-0.
 08972911,-0.18701256,-0.08506088,-0.00038136,0.00015036,0.00051445,-0.
 00002956,0.00132029,0.00046031,0.00205471,0.00055865,-0.00076779,0.002
 30209,-0.00784174,0.00140256,-0.00021618,-0.00004904,0.00017716,-0.000
 18892,0.00001715,0.00003745,-0.00004150,-0.00006321,-0.00010016,0.0001
 7485,0.00003211,-0.00022325,-0.00034753,0.00048691,0.00029735,-0.00018
 223,0.00014605,0.00031868,0.00352553,0.00502886,0.00216111,0.09979330,
 0.20334587,0.00338060,0.00494357,0.00124913,-0.05818061,-0.08713290,-0
 .10248902,0.00641495,0.00985830,0.00466707,0.00202464,-0.00020984,-0.0
 0029521,0.00010557,0.00000511,-0.00012114,-0.00037568,0.00114142,0.001
 57593,-0.00005231,-0.00002432,0.00000700,0.00000037,-0.00003325,-0.000
 04488,0.00027202,0.00030071,0.00030085,0.00038994,0.00028509,0.0004105
 5,-0.00071957,-0.00016607,0.00009288,-0.00054552,0.00031534,0.00081760
 ,-0.01494061,-0.02368307,-0.01408903,0.06168323,0.09520352,0.10753736,
 -0.25945744,0.00546087,0.09731381,-0.01240456,0.00154024,0.00683066,0.
 00044168,0.00322836,-0.00119744,0.00035966,-0.00020098,0.00020541,0.00
 157356,-0.00227296,-0.00298716,-0.02107587,-0.00884302,0.00407246,0.00
 002724,0.00000118,0.00019817,-0.00093457,-0.00005618,0.00029164,-0.000
 02814,-0.00000324,-0.00006755,-0.00002084,0.00011072,0.00003462,-0.000
 81657,-0.00019964,0.00031676,0.00010900,-0.00002038,0.00008470,0.00047
 526,-0.00047254,-0.00050358,0.00020494,0.00057743,0.00017251,0.2876907
 1,0.01230052,-0.04672239,-0.00387217,0.02734460,0.00125244,-0.01235311
 ,0.00158419,-0.00569039,0.00217328,-0.00060274,-0.00048325,0.00001717,
 -0.00108257,-0.00378707,-0.00317078,-0.03399979,-0.00691387,0.00970835
 ,0.00019541,0.00001948,0.00007996,-0.00154916,-0.00013181,0.00023617,0
 .00002658,0.00011006,0.00002655,-0.00005004,0.00028921,-0.00000689,0.0
 0200328,0.00008829,-0.00044311,-0.00027458,-0.00001199,-0.00005942,-0.
 00066765,0.00123039,0.00021712,-0.00089797,0.00068874,-0.00034940,0.00
 054141,0.05874944,0.10563378,0.00013938,-0.09966586,-0.00761912,0.0014
 5178,0.00295847,-0.00026286,0.00085772,0.00035977,-0.00022760,-0.00014
 330,0.00007260,-0.00105166,-0.00178510,-0.00090147,-0.01809092,-0.0030
 4079,0.00699321,-0.00035451,-0.00018020,0.00052349,-0.00046923,-0.0001
 7717,0.00046524,0.00002420,-0.00000791,-0.00000837,0.00000534,0.000111
 98,-0.00003974,-0.00012303,0.00007716,0.00034955,-0.00043696,0.0000525
 6,0.00036663,-0.00025650,-0.00064967,0.00078267,0.00034862,-0.00038848
 ,0.00006762,-0.10488232,0.00434291,0.10006439,-0.05562525,0.00489344,-
 0.01026394,-0.00053873,0.00495452,-0.01551127,0.00089257,-0.00066136,-
 0.00122340,-0.00055523,-0.00001483,0.00027925,0.00295373,0.00104629,-0
 .00449568,-0.00577211,-0.00740557,-0.02107735,0.00049581,0.00018269,0.
 00108857,0.00009245,-0.00003747,0.00029585,0.00006437,-0.00010219,0.00
 017610,-0.00009852,0.00009867,0.00004292,0.00020471,-0.00006135,0.0002
 9622,-0.00009228,0.00011177,0.00033075,-0.00066454,0.00265760,-0.00079
 647,0.00058360,-0.00027103,0.00037047,0.00385596,-0.00487149,0.0277627
 7,0.05420347,0.00355812,-0.05490610,0.04500658,0.00296032,-0.00605135,
 0.03007606,-0.00148269,0.00091049,0.00037683,-0.00027303,-0.00017894,0
 .00035116,0.00421748,0.00138280,-0.00322883,-0.01272562,-0.00595985,-0
 .03458862,0.00034982,0.00020890,0.00150691,0.00015263,-0.00005551,0.00
 022499,-0.00003256,-0.00018231,-0.00002395,-0.00005426,0.00026165,0.00
 004133,-0.00027400,0.00004090,-0.00040812,0.00047696,0.00018422,-0.000
 79936,0.00371283,-0.00475294,0.00092707,-0.00067504,0.00094416,-0.0004
 5422,0.00060874,0.00131273,-0.00066087,-0.00051969,0.06684116,-0.01297
 370,0.04433725,-0.26812297,0.00085471,0.00268745,-0.00708276,0.0002765
 9,-0.00072501,0.00027654,-0.00033830,-0.00024100,0.00020896,0.00355732
 ,0.00088307,0.00041735,-0.01105682,-0.01376150,-0.01796328,-0.00185987
 ,-0.00031286,0.00104193,-0.00017879,-0.00016247,0.00053354,0.00023865,
 0.00005545,-0.00007912,-0.00016967,0.00008648,0.00000433,0.00000018,0.
 00006156,0.00032261,-0.00079424,-0.00002885,0.00057232,-0.00038757,0.0
 0104975,0.00128780,-0.00001099,0.00096425,0.00031328,0.00011732,0.0034
 5338,-0.01238822,0.02272519,-0.03834697,0.30065768\\-0.00000136,-0.000
 00279,0.00000040,-0.00000236,0.00000042,-0.00000073,0.00000124,-0.0000
 0034,0.00000030,0.00000081,0.00000047,-0.00000050,-0.00000076,-0.00000
 025,0.00000119,0.00000214,0.00000225,0.00000110,-0.00000005,0.00000041
 ,0.00000014,0.00000053,-0.00000071,0.00000103,0.00000047,-0.00000121,-
 0.00000005,-0.00000062,-0.00000050,-0.00000086,-0.00000074,0.00000008,
 -0.00000167,-0.00000103,0.00000083,-0.00000171,0.00000069,-0.00000051,
 -0.00000004,0.00000022,0.00000059,-0.00000056,0.00000069,0.00000034,0.
 00000123,0.00000013,0.00000093,0.00000073\\\@


 OPTIMIST - A PESSIMIST WHO LACKS EXPERIENCE
 Job cpu time:  0 days  3 hours 10 minutes 46.4 seconds.
 File lengths (MBytes):  RWF=     95 Int=      0 D2E=      0 Chk=      7 Scr=      1
 Normal termination of Gaussian 09 at Wed Oct 24 19:21:10 2012.
