 Entering Gaussian System, Link 0=g09
 Initial command:
 /projects/nrel/apps/gaussian/g09/B.01/g09/l1.exe /scratch/hmayes/bglc_14b_599/Gau-17374.inp -scrdir=/scratch/hmayes/bglc_14b_599/
 Default is to use a total of   8 processors:
                                8 via shared-memory
                                1 via Linda
 Entering Link 1 = /projects/nrel/apps/gaussian/g09/B.01/g09/l1.exe PID=     17375.
  
 Copyright (c) 1988,1990,1992,1993,1995,1998,2003,2009,2010,
            Gaussian, Inc.  All Rights Reserved.
  
 This is part of the Gaussian(R) 09 program.  It is based on
 the Gaussian(R) 03 system (copyright 2003, Gaussian, Inc.),
 the Gaussian(R) 98 system (copyright 1998, Gaussian, Inc.),
 the Gaussian(R) 94 system (copyright 1995, Gaussian, Inc.),
 the Gaussian 92(TM) system (copyright 1992, Gaussian, Inc.),
 the Gaussian 90(TM) system (copyright 1990, Gaussian, Inc.),
 the Gaussian 88(TM) system (copyright 1988, Gaussian, Inc.),
 the Gaussian 86(TM) system (copyright 1986, Carnegie Mellon
 University), and the Gaussian 82(TM) system (copyright 1983,
 Carnegie Mellon University). Gaussian is a federally registered
 trademark of Gaussian, Inc.
  
 This software contains proprietary and confidential information,
 including trade secrets, belonging to Gaussian, Inc.
  
 This software is provided under written license and may be
 used, copied, transmitted, or stored only in accord with that
 written license.
  
 The following legend is applicable only to US Government
 contracts under FAR:
  
                    RESTRICTED RIGHTS LEGEND
  
 Use, reproduction and disclosure by the US Government is
 subject to restrictions as set forth in subparagraphs (a)
 and (c) of the Commercial Computer Software - Restricted
 Rights clause in FAR 52.227-19.
  
 Gaussian, Inc.
 340 Quinnipiac St., Bldg. 40, Wallingford CT 06492
  
  
 ---------------------------------------------------------------
 Warning -- This program may not be used in any manner that
 competes with the business of Gaussian, Inc. or will provide
 assistance to any competitor of Gaussian, Inc.  The licensee
 of this program is prohibited from giving any competitor of
 Gaussian, Inc. access to this program.  By using this program,
 the user acknowledges that Gaussian, Inc. is engaged in the
 business of creating and licensing software in the field of
 computational chemistry and represents and warrants to the
 licensee that it is not a competitor of Gaussian, Inc. and that
 it will not use this program in any manner prohibited above.
 ---------------------------------------------------------------
  

 Cite this work as:
 Gaussian 09, Revision B.01,
 M. J. Frisch, G. W. Trucks, H. B. Schlegel, G. E. Scuseria, 
 M. A. Robb, J. R. Cheeseman, G. Scalmani, V. Barone, B. Mennucci, 
 G. A. Petersson, H. Nakatsuji, M. Caricato, X. Li, H. P. Hratchian, 
 A. F. Izmaylov, J. Bloino, G. Zheng, J. L. Sonnenberg, M. Hada, 
 M. Ehara, K. Toyota, R. Fukuda, J. Hasegawa, M. Ishida, T. Nakajima, 
 Y. Honda, O. Kitao, H. Nakai, T. Vreven, J. A. Montgomery, Jr., 
 J. E. Peralta, F. Ogliaro, M. Bearpark, J. J. Heyd, E. Brothers, 
 K. N. Kudin, V. N. Staroverov, T. Keith, R. Kobayashi, J. Normand, 
 K. Raghavachari, A. Rendell, J. C. Burant, S. S. Iyengar, J. Tomasi, 
 M. Cossi, N. Rega, J. M. Millam, M. Klene, J. E. Knox, J. B. Cross, 
 V. Bakken, C. Adamo, J. Jaramillo, R. Gomperts, R. E. Stratmann, 
 O. Yazyev, A. J. Austin, R. Cammi, C. Pomelli, J. W. Ochterski, 
 R. L. Martin, K. Morokuma, V. G. Zakrzewski, G. A. Voth, 
 P. Salvador, J. J. Dannenberg, S. Dapprich, A. D. Daniels, 
 O. Farkas, J. B. Foresman, J. V. Ortiz, J. Cioslowski, 
 and D. J. Fox, Gaussian, Inc., Wallingford CT, 2010.
 
 ******************************************
 Gaussian 09:  EM64L-G09RevB.01 12-Aug-2010
                12-Jun-2012 
 ******************************************
 %chk=/home/hmayes/gaussian/bglucose/bglc_14b_599.chk
 %mem=10GB
 %nproc=8
 Will use up to    8 processors via shared memory.
 Default route:  MaxDisk=16GB
 -----------------------------------------
 # opt(modredundant) m062x/6-31G(d) nosymm
 -----------------------------------------
 1/14=-1,18=120,19=15,26=3,38=1/1,3;
 2/9=110,12=2,15=1,17=6,18=5,40=1/2;
 3/5=1,6=6,7=1,11=2,16=1,25=1,30=1,71=1,74=-55/1,2,3;
 4//1;
 5/5=2,38=5/2;
 6/7=2,8=2,9=2,10=2,28=1/1;
 7/30=1/1,2,3,16;
 1/14=-1,18=20,19=15/3(2);
 2/9=110,15=1/2;
 99//99;
 2/9=110,15=1/2;
 3/5=1,6=6,7=1,11=2,16=1,25=1,30=1,71=1,74=-55/1,2,3;
 4/5=5,16=3/1;
 5/5=2,38=5/2;
 7/30=1/1,2,3,16;
 1/14=-1,18=20,19=15/3(-5);
 2/9=110,15=1/2;
 6/7=2,8=2,9=2,10=2,19=2,28=1/1;
 99/9=1/99;
 ---------------------------------------------
 Starting Geometry for Conformational Analysis
 ---------------------------------------------
 Symbolic Z-matrix:
 Charge =  0 Multiplicity = 1
 C                     21.07611  -1.25604  -32.7198 
 H                     20.24393  -1.65347  -32.12957 
 O                     20.76272   0.06684  -33.03952 
 H                     21.40467   0.66549  -32.63128 
 C                     23.50027  -1.10195  -32.39412 
 H                     24.11485  -2.00874  -32.37694 
 O                     22.17852  -1.45563  -31.84167 
 C                     21.30241  -2.20399  -33.90308 
 H                     20.4948  -2.06836  -34.64215 
 O                     21.29472  -3.50051  -33.36003 
 H                     20.47369  -3.62111  -32.86396 
 C                     22.64837  -1.81881  -34.56575 
 H                     23.34935  -2.66233  -34.50201 
 O                     22.49384  -1.36828  -35.90767 
 H                     21.74506  -0.75879  -35.96028 
 C                     23.27978  -0.64475  -33.82527 
 H                     22.68967   0.26621  -33.87343 
 O                     24.56362  -0.39597  -34.37503 
 H                     24.42962  -0.30484  -35.33137 
 C                     24.08545  -0.04003  -31.48326 
 H                     23.49748   0.87845  -31.55576 
 H                     24.03811  -0.40659  -30.44559 
 O                     25.40482   0.25915  -31.86984 
 H                     25.32653   0.70891  -32.72624 
 
 The following ModRedundant input section has been read:
 D       7       5      16      12 F                                           
 D       8      12      16       5 F                                           
 D       1       8      12      16 F                                           
 D       7       1       8      12 F                                           

 GradGradGradGradGradGradGradGradGradGradGradGradGradGradGradGradGradGrad
 Berny optimization.
 Initialization pass.
                           ----------------------------
                           !    Initial Parameters    !
                           ! (Angstroms and Degrees)  !
 --------------------------                            --------------------------
 ! Name  Definition              Value          Derivative Info.                !
 --------------------------------------------------------------------------------
 ! R1    R(1,2)                  1.0949         estimate D2E/DX2                !
 ! R2    R(1,3)                  1.3966         estimate D2E/DX2                !
 ! R3    R(1,7)                  1.4235         estimate D2E/DX2                !
 ! R4    R(1,8)                  1.533          estimate D2E/DX2                !
 ! R5    R(3,4)                  0.9681         estimate D2E/DX2                !
 ! R6    R(5,6)                  1.0956         estimate D2E/DX2                !
 ! R7    R(5,7)                  1.4756         estimate D2E/DX2                !
 ! R8    R(5,16)                 1.5185         estimate D2E/DX2                !
 ! R9    R(5,20)                 1.5165         estimate D2E/DX2                !
 ! R10   R(8,9)                  1.1031         estimate D2E/DX2                !
 ! R11   R(8,10)                 1.4057         estimate D2E/DX2                !
 ! R12   R(8,12)                 1.5489         estimate D2E/DX2                !
 ! R13   R(10,11)                0.9668         estimate D2E/DX2                !
 ! R14   R(12,13)                1.0986         estimate D2E/DX2                !
 ! R15   R(12,14)                1.4239         estimate D2E/DX2                !
 ! R16   R(12,16)                1.5249         estimate D2E/DX2                !
 ! R17   R(14,15)                0.9669         estimate D2E/DX2                !
 ! R18   R(16,17)                1.0865         estimate D2E/DX2                !
 ! R19   R(16,18)                1.4186         estimate D2E/DX2                !
 ! R20   R(18,19)                0.97           estimate D2E/DX2                !
 ! R21   R(20,21)                1.093          estimate D2E/DX2                !
 ! R22   R(20,22)                1.1015         estimate D2E/DX2                !
 ! R23   R(20,23)                1.407          estimate D2E/DX2                !
 ! R24   R(23,24)                0.9705         estimate D2E/DX2                !
 ! A1    A(2,1,3)              107.2587         estimate D2E/DX2                !
 ! A2    A(2,1,7)              101.8395         estimate D2E/DX2                !
 ! A3    A(2,1,8)              107.688          estimate D2E/DX2                !
 ! A4    A(3,1,7)              116.6047         estimate D2E/DX2                !
 ! A5    A(3,1,8)              116.2419         estimate D2E/DX2                !
 ! A6    A(7,1,8)              105.9702         estimate D2E/DX2                !
 ! A7    A(1,3,4)              109.9021         estimate D2E/DX2                !
 ! A8    A(6,5,7)              107.3516         estimate D2E/DX2                !
 ! A9    A(6,5,16)             110.2084         estimate D2E/DX2                !
 ! A10   A(6,5,20)             110.7134         estimate D2E/DX2                !
 ! A11   A(7,5,16)             107.1555         estimate D2E/DX2                !
 ! A12   A(7,5,20)             106.7751         estimate D2E/DX2                !
 ! A13   A(16,5,20)            114.2854         estimate D2E/DX2                !
 ! A14   A(1,7,5)              115.4134         estimate D2E/DX2                !
 ! A15   A(1,8,9)              109.4536         estimate D2E/DX2                !
 ! A16   A(1,8,10)             105.7447         estimate D2E/DX2                !
 ! A17   A(1,8,12)             107.7426         estimate D2E/DX2                !
 ! A18   A(9,8,10)             111.6063         estimate D2E/DX2                !
 ! A19   A(9,8,12)             108.601          estimate D2E/DX2                !
 ! A20   A(10,8,12)            113.5416         estimate D2E/DX2                !
 ! A21   A(8,10,11)            108.5377         estimate D2E/DX2                !
 ! A22   A(8,12,13)            109.7976         estimate D2E/DX2                !
 ! A23   A(8,12,14)            112.8034         estimate D2E/DX2                !
 ! A24   A(8,12,16)            110.0916         estimate D2E/DX2                !
 ! A25   A(13,12,14)           111.5213         estimate D2E/DX2                !
 ! A26   A(13,12,16)           107.3836         estimate D2E/DX2                !
 ! A27   A(14,12,16)           105.0079         estimate D2E/DX2                !
 ! A28   A(12,14,15)           109.5575         estimate D2E/DX2                !
 ! A29   A(5,16,12)            106.6165         estimate D2E/DX2                !
 ! A30   A(5,16,17)            111.9067         estimate D2E/DX2                !
 ! A31   A(5,16,18)            106.6569         estimate D2E/DX2                !
 ! A32   A(12,16,17)           113.5235         estimate D2E/DX2                !
 ! A33   A(12,16,18)           108.7579         estimate D2E/DX2                !
 ! A34   A(17,16,18)           109.1069         estimate D2E/DX2                !
 ! A35   A(16,18,19)           105.8755         estimate D2E/DX2                !
 ! A36   A(5,20,21)            109.9389         estimate D2E/DX2                !
 ! A37   A(5,20,22)            108.4336         estimate D2E/DX2                !
 ! A38   A(5,20,23)            110.2252         estimate D2E/DX2                !
 ! A39   A(21,20,22)           108.6034         estimate D2E/DX2                !
 ! A40   A(21,20,23)           107.9108         estimate D2E/DX2                !
 ! A41   A(22,20,23)           111.7089         estimate D2E/DX2                !
 ! A42   A(20,23,24)           105.3884         estimate D2E/DX2                !
 ! D1    D(2,1,3,4)            116.4631         estimate D2E/DX2                !
 ! D2    D(7,1,3,4)              3.1415         estimate D2E/DX2                !
 ! D3    D(8,1,3,4)           -123.0148         estimate D2E/DX2                !
 ! D4    D(2,1,7,5)            175.746          estimate D2E/DX2                !
 ! D5    D(3,1,7,5)            -67.8927         estimate D2E/DX2                !
 ! D6    D(8,1,7,5)             63.233          estimate D2E/DX2                !
 ! D7    D(2,1,8,9)             73.7198         estimate D2E/DX2                !
 ! D8    D(2,1,8,10)           -46.6331         estimate D2E/DX2                !
 ! D9    D(2,1,8,12)          -168.363          estimate D2E/DX2                !
 ! D10   D(3,1,8,9)            -46.572          estimate D2E/DX2                !
 ! D11   D(3,1,8,10)          -166.9248         estimate D2E/DX2                !
 ! D12   D(3,1,8,12)            71.3452         estimate D2E/DX2                !
 ! D13   D(7,1,8,9)           -177.9035         estimate D2E/DX2                !
 ! D14   D(7,1,8,10)            61.7437         estimate D2E/DX2                !
 ! D15   D(7,1,8,12)           -59.9862         Frozen                          !
 ! D16   D(6,5,7,1)           -120.0863         estimate D2E/DX2                !
 ! D17   D(16,5,7,1)            -1.7132         estimate D2E/DX2                !
 ! D18   D(20,5,7,1)           121.149          estimate D2E/DX2                !
 ! D19   D(6,5,16,12)           56.5149         estimate D2E/DX2                !
 ! D20   D(6,5,16,17)         -178.8085         estimate D2E/DX2                !
 ! D21   D(6,5,16,18)          -59.5615         estimate D2E/DX2                !
 ! D22   D(7,5,16,12)          -59.9869         Frozen                          !
 ! D23   D(7,5,16,17)           64.6897         estimate D2E/DX2                !
 ! D24   D(7,5,16,18)         -176.0633         estimate D2E/DX2                !
 ! D25   D(20,5,16,12)        -178.0646         estimate D2E/DX2                !
 ! D26   D(20,5,16,17)         -53.388          estimate D2E/DX2                !
 ! D27   D(20,5,16,18)          65.859          estimate D2E/DX2                !
 ! D28   D(6,5,20,21)          176.6121         estimate D2E/DX2                !
 ! D29   D(6,5,20,22)          -64.7923         estimate D2E/DX2                !
 ! D30   D(6,5,20,23)           57.7767         estimate D2E/DX2                !
 ! D31   D(7,5,20,21)          -66.8363         estimate D2E/DX2                !
 ! D32   D(7,5,20,22)           51.7592         estimate D2E/DX2                !
 ! D33   D(7,5,20,23)          174.3283         estimate D2E/DX2                !
 ! D34   D(16,5,20,21)          51.4579         estimate D2E/DX2                !
 ! D35   D(16,5,20,22)         170.0535         estimate D2E/DX2                !
 ! D36   D(16,5,20,23)         -67.3775         estimate D2E/DX2                !
 ! D37   D(1,8,10,11)           54.451          estimate D2E/DX2                !
 ! D38   D(9,8,10,11)          -64.4852         estimate D2E/DX2                !
 ! D39   D(12,8,10,11)         172.3683         estimate D2E/DX2                !
 ! D40   D(1,8,12,13)          118.0198         estimate D2E/DX2                !
 ! D41   D(1,8,12,14)         -116.9301         estimate D2E/DX2                !
 ! D42   D(1,8,12,16)           -0.0004         Frozen                          !
 ! D43   D(9,8,12,13)         -123.5144         estimate D2E/DX2                !
 ! D44   D(9,8,12,14)            1.5357         estimate D2E/DX2                !
 ! D45   D(9,8,12,16)          118.4654         estimate D2E/DX2                !
 ! D46   D(10,8,12,13)           1.2655         estimate D2E/DX2                !
 ! D47   D(10,8,12,14)         126.3156         estimate D2E/DX2                !
 ! D48   D(10,8,12,16)        -116.7547         estimate D2E/DX2                !
 ! D49   D(8,12,14,15)          44.2102         estimate D2E/DX2                !
 ! D50   D(13,12,14,15)        168.3174         estimate D2E/DX2                !
 ! D51   D(16,12,14,15)        -75.6922         estimate D2E/DX2                !
 ! D52   D(8,12,16,5)           59.9857         Frozen                          !
 ! D53   D(8,12,16,17)         -63.6941         estimate D2E/DX2                !
 ! D54   D(8,12,16,18)         174.6474         estimate D2E/DX2                !
 ! D55   D(13,12,16,5)         -59.514          estimate D2E/DX2                !
 ! D56   D(13,12,16,17)        176.8062         estimate D2E/DX2                !
 ! D57   D(13,12,16,18)         55.1476         estimate D2E/DX2                !
 ! D58   D(14,12,16,5)        -178.3243         estimate D2E/DX2                !
 ! D59   D(14,12,16,17)         57.9959         estimate D2E/DX2                !
 ! D60   D(14,12,16,18)        -63.6627         estimate D2E/DX2                !
 ! D61   D(5,16,18,19)         167.3614         estimate D2E/DX2                !
 ! D62   D(12,16,18,19)         52.726          estimate D2E/DX2                !
 ! D63   D(17,16,18,19)        -71.5885         estimate D2E/DX2                !
 ! D64   D(5,20,23,24)          68.7176         estimate D2E/DX2                !
 ! D65   D(21,20,23,24)        -51.3493         estimate D2E/DX2                !
 ! D66   D(22,20,23,24)       -170.6592         estimate D2E/DX2                !
 --------------------------------------------------------------------------------
 Trust Radius=3.00D-01 FncErr=1.00D-07 GrdErr=1.00D-06
 Number of steps in this run=    142 maximum allowed number of steps=    144.
 GradGradGradGradGradGradGradGradGradGradGradGradGradGradGradGradGradGrad

                          Input orientation:                          
 ---------------------------------------------------------------------
 Center     Atomic      Atomic             Coordinates (Angstroms)
 Number     Number       Type             X           Y           Z
 ---------------------------------------------------------------------
      1          6           0       21.076111   -1.256035  -32.719799
      2          1           0       20.243933   -1.653474  -32.129569
      3          8           0       20.762719    0.066843  -33.039525
      4          1           0       21.404667    0.665494  -32.631277
      5          6           0       23.500267   -1.101949  -32.394120
      6          1           0       24.114855   -2.008740  -32.376943
      7          8           0       22.178523   -1.455629  -31.841668
      8          6           0       21.302415   -2.203994  -33.903078
      9          1           0       20.494797   -2.068364  -34.642151
     10          8           0       21.294715   -3.500514  -33.360025
     11          1           0       20.473686   -3.621113  -32.863963
     12          6           0       22.648365   -1.818811  -34.565749
     13          1           0       23.349352   -2.662330  -34.502009
     14          8           0       22.493836   -1.368283  -35.907674
     15          1           0       21.745055   -0.758788  -35.960282
     16          6           0       23.279778   -0.644752  -33.825269
     17          1           0       22.689673    0.266213  -33.873432
     18          8           0       24.563616   -0.395974  -34.375025
     19          1           0       24.429620   -0.304841  -35.331369
     20          6           0       24.085454   -0.040032  -31.483256
     21          1           0       23.497475    0.878452  -31.555759
     22          1           0       24.038109   -0.406593  -30.445585
     23          8           0       25.404817    0.259149  -31.869840
     24          1           0       25.326531    0.708912  -32.726245
 ---------------------------------------------------------------------
                    Distance matrix (angstroms):
                    1          2          3          4          5
     1  C    0.000000
     2  H    1.094920   0.000000
     3  O    1.396583   2.014113   0.000000
     4  H    1.951425   2.641331   0.968063   0.000000
     5  C    2.450784   3.313288   3.045783   2.751661   0.000000
     6  H    3.149298   3.895054   3.997984   3.815931   1.095574
     7  O    1.423469   1.965876   2.399434   2.391965   1.475568
     8  C    1.532967   2.137473   2.488714   3.140365   2.884790
     9  H    2.166389   2.558932   2.683151   3.513610   3.875623
    10  O    2.344219   2.455549   3.621019   4.230696   3.398609
    11  H    2.444850   2.112753   3.703428   4.392706   3.965745
    12  C    2.489223   3.426894   3.072574   3.385371   2.440410
    13  H    3.212719   4.036073   4.034590   4.284373   2.626930
    14  O    3.490715   4.406526   3.644534   4.007158   3.664546
    15  H    3.345963   4.210486   3.190215   3.636855   3.989491
    16  C    2.540055   3.620673   2.731181   2.580388   1.518497
    17  H    2.500338   3.564814   2.109100   1.831288   2.171933
    18  O    3.955018   5.028224   4.055191   3.761161   2.356501
    19  H    4.355582   5.439698   4.340145   4.169219   3.182218
    20  C    3.473305   4.216420   3.670690   3.000390   1.516504
    21  H    3.431330   4.162384   3.215457   2.362612   2.150545
    22  H    3.829756   4.334315   4.204860   3.586312   2.137658
    23  O    4.664323   5.510019   4.791056   4.092200   2.398910
    24  H    4.682641   5.636461   4.619391   3.923254   2.593215
                    6          7          8          9         10
     6  H    0.000000
     7  O    2.083706   0.000000
     8  C    3.205781   2.361573   0.000000
     9  H    4.270778   3.324618   1.103119   0.000000
    10  O    3.338417   2.695938   1.405678   2.082011   0.000000
    11  H    4.011863   2.939537   1.942879   2.360811   0.966804
    12  C    2.641503   2.788058   1.548896   2.169325   2.472704
    13  H    2.351400   3.147123   2.181454   2.919061   2.495639
    14  O    3.937505   4.079149   2.477156   2.467351   3.531971
    15  H    4.474221   4.199579   2.552771   2.239554   3.805418
    16  C    2.157653   2.409348   2.519376   3.232659   3.508889
    17  H    3.073440   2.711841   2.833247   3.295248   4.049411
    18  O    2.606671   3.637229   3.758604   4.407214   4.621050
    19  H    3.425052   4.309265   3.927621   4.366677   4.891437
    20  C    2.162256   2.401824   4.275930   5.194763   4.825497
    21  H    3.064536   2.696166   4.453052   5.217817   5.223301
    22  H    2.510559   2.550997   4.761190   5.738267   5.058905
    23  O    2.657908   3.653797   5.199118   6.100108   5.766165
    24  H    2.995964   3.921437   5.105239   5.893183   5.863146
                   11         12         13         14         15
    11  H    0.000000
    12  C    3.297514   0.000000
    13  H    3.445564   1.098622   0.000000
    14  O    4.291902   1.423944   2.093409   0.000000
    15  H    4.404143   1.970873   2.885100   0.966915   0.000000
    16  C    4.202022   1.524929   2.129187   2.340430   2.631855
    17  H    4.587039   2.197347   3.067026   2.616882   2.509556
    18  O    5.423316   2.393539   2.574283   2.752887   3.254068
    19  H    5.721465   2.459908   2.722604   2.282607   2.794367
    20  C    5.270233   3.838104   4.065853   4.885998   5.102729
    21  H    5.576808   4.129922   4.608630   4.999427   5.015113
    22  H    5.374644   4.571816   4.692261   5.757086   5.982810
    23  O    6.353012   4.379940   4.437149   5.237027   5.582273
    24  H    6.505243   4.116519   4.292767   4.739239   5.043819
                   16         17         18         19         20
    16  C    0.000000
    17  H    1.086463   0.000000
    18  O    1.418578   2.049817   0.000000
    19  H    1.925101   2.340747   0.969976   0.000000
    20  C    2.549475   2.784768   2.952569   3.872538   0.000000
    21  H    2.741937   2.529622   3.272473   4.065010   1.092972
    22  H    3.471894   3.744474   3.964438   4.902501   1.101531
    23  O    3.025976   3.374380   2.722638   3.640230   1.407009
    24  H    2.688765   2.909474   2.126332   2.935782   1.909505
                   21         22         23         24
    21  H    0.000000
    22  H    1.782165   0.000000
    23  O    2.029812   2.083172   0.000000
    24  H    2.178125   2.847067   0.970487   0.000000
 Symmetry turned off by external request.
 Stoichiometry    C6H12O6
 Framework group  C1[X(C6H12O6)]
 Deg. of freedom    66
 Full point group                 C1      NOp   1
 Rotational constants (GHZ):      1.2851932      0.7920623      0.6351674
 Standard basis: 6-31G(d) (6D, 7F)
 Integral buffers will be    131072 words long.
 Raffenetti 2 integral format.
 Two-electron integral symmetry is turned off.
   204 basis functions,   384 primitive gaussians,   204 cartesian basis functions
    48 alpha electrons       48 beta electrons
       nuclear repulsion energy       849.9109118138 Hartrees.
 NAtoms=   24 NActive=   24 NUniq=   24 SFac= 1.00D+00 NAtFMM=   50 NAOKFM=F Big=F
 One-electron integrals computed using PRISM.
 NBasis=   204 RedAO= T  NBF=   204
 NBsUse=   204 1.00D-06 NBFU=   204
 Harris functional with IExCor= 1009 diagonalized for initial guess.
 ExpMin= 1.61D-01 ExpMax= 5.48D+03 ExpMxC= 8.25D+02 IAcc=1 IRadAn=         1 AccDes= 0.00D+00
 HarFok:  IExCor= 1009 AccDes= 0.00D+00 IRadAn=         1 IDoV= 1
 ScaDFX=  1.000000  1.000000  1.000000  1.000000
 FoFCou: FMM=F IPFlag=           0 FMFlag=      100000 FMFlg1=           0
         NFxFlg=           0 DoJE=T BraDBF=F KetDBF=T FulRan=T
         Omega=  0.000000  0.000000  1.000000  0.000000  0.000000 ICntrl=     500 IOpCl=  0
         NMat0=    1 NMatS0=    1 NMatT0=    0 NMatD0=    1 NMtDS0=    0 NMtDT0=    0
         I1Cent=           4 NGrid=           0.
 Symmetry not used in FoFCou.
 Requested convergence on RMS density matrix=1.00D-08 within 128 cycles.
 Requested convergence on MAX density matrix=1.00D-06.
 Requested convergence on             energy=1.00D-06.
 No special actions if energy rises.
 Keep R1 ints in memory in canonical form, NReq=223279134.
 Integral accuracy reduced to 1.0D-05 until final iterations.
 Initial convergence to 1.0D-05 achieved.  Increase integral accuracy.
 SCF Done:  E(RM062X) =  -686.846246251     A.U. after   14 cycles
             Convg  =    0.6966D-08             -V/T =  2.0077

 **********************************************************************

            Population analysis using the SCF density.

 **********************************************************************

 Alpha  occ. eigenvalues --  -19.66568 -19.65929 -19.65875 -19.65153 -19.65128
 Alpha  occ. eigenvalues --  -19.62605 -10.65967 -10.61508 -10.61392 -10.60683
 Alpha  occ. eigenvalues --  -10.60450 -10.59471  -1.21011  -1.17620  -1.16056
 Alpha  occ. eigenvalues --   -1.15035  -1.13516  -1.12968  -0.89546  -0.87406
 Alpha  occ. eigenvalues --   -0.78713  -0.75226  -0.71644  -0.68397  -0.63899
 Alpha  occ. eigenvalues --   -0.61668  -0.60284  -0.59589  -0.58009  -0.56313
 Alpha  occ. eigenvalues --   -0.55400  -0.53469  -0.51614  -0.50506  -0.49229
 Alpha  occ. eigenvalues --   -0.48154  -0.47000  -0.45338  -0.44275  -0.42664
 Alpha  occ. eigenvalues --   -0.42134  -0.39729  -0.37892  -0.37302  -0.36518
 Alpha  occ. eigenvalues --   -0.34903  -0.33801  -0.32090
 Alpha virt. eigenvalues --    0.07918   0.09651   0.10939   0.11924   0.14381
 Alpha virt. eigenvalues --    0.15852   0.16530   0.17638   0.18538   0.19538
 Alpha virt. eigenvalues --    0.20046   0.22719   0.24073   0.24809   0.25615
 Alpha virt. eigenvalues --    0.26835   0.29258   0.29926   0.31696   0.32340
 Alpha virt. eigenvalues --    0.33940   0.35557   0.36812   0.39145   0.57580
 Alpha virt. eigenvalues --    0.58031   0.60125   0.60494   0.61480   0.63364
 Alpha virt. eigenvalues --    0.64810   0.66063   0.67405   0.68532   0.71422
 Alpha virt. eigenvalues --    0.73613   0.75285   0.78042   0.79882   0.82111
 Alpha virt. eigenvalues --    0.84914   0.86365   0.86805   0.87365   0.88104
 Alpha virt. eigenvalues --    0.89709   0.90309   0.92569   0.93099   0.93640
 Alpha virt. eigenvalues --    0.94783   0.95672   0.96781   0.97614   0.99728
 Alpha virt. eigenvalues --    1.01283   1.02922   1.04782   1.06299   1.08700
 Alpha virt. eigenvalues --    1.09823   1.12130   1.13154   1.14369   1.15629
 Alpha virt. eigenvalues --    1.18836   1.19496   1.21626   1.24130   1.25972
 Alpha virt. eigenvalues --    1.28729   1.31639   1.33666   1.36059   1.38184
 Alpha virt. eigenvalues --    1.41908   1.42586   1.47738   1.48814   1.52592
 Alpha virt. eigenvalues --    1.57373   1.59976   1.63827   1.65630   1.66983
 Alpha virt. eigenvalues --    1.67679   1.69506   1.71613   1.74648   1.77039
 Alpha virt. eigenvalues --    1.78151   1.80753   1.82392   1.83876   1.86227
 Alpha virt. eigenvalues --    1.87174   1.90343   1.91526   1.92345   1.94559
 Alpha virt. eigenvalues --    1.95399   1.98528   1.99580   2.02803   2.04622
 Alpha virt. eigenvalues --    2.05806   2.09466   2.12192   2.14273   2.16826
 Alpha virt. eigenvalues --    2.17752   2.18934   2.19546   2.25474   2.27763
 Alpha virt. eigenvalues --    2.29600   2.32896   2.34669   2.37378   2.41713
 Alpha virt. eigenvalues --    2.44561   2.46007   2.49692   2.51421   2.53285
 Alpha virt. eigenvalues --    2.53843   2.56228   2.56907   2.60793   2.62085
 Alpha virt. eigenvalues --    2.63398   2.66090   2.69416   2.73169   2.78806
 Alpha virt. eigenvalues --    2.80622   2.86739   2.89392   2.92680   2.94162
 Alpha virt. eigenvalues --    2.97108   3.03327   3.10335   3.13861   3.75146
 Alpha virt. eigenvalues --    3.79632   3.87307   3.96139   4.06845   4.11258
 Alpha virt. eigenvalues --    4.30841   4.39965   4.50072   4.62085   4.65950
 Alpha virt. eigenvalues --    4.87622
          Condensed to atoms (all electrons):
              1          2          3          4          5          6
     1  C    4.756543   0.405240   0.178958  -0.012796  -0.039216   0.002008
     2  H    0.405240   0.588205  -0.043555   0.001937   0.005477  -0.000184
     3  O    0.178958  -0.043555   8.378870   0.229603   0.007057  -0.000224
     4  H   -0.012796   0.001937   0.229603   0.339779   0.001311   0.000284
     5  C   -0.039216   0.005477   0.007057   0.001311   5.078522   0.380252
     6  H    0.002008  -0.000184  -0.000224   0.000284   0.380252   0.537304
     7  O    0.234978  -0.047656  -0.047367   0.000946   0.155951  -0.030914
     8  C    0.300053  -0.070672  -0.051896   0.005106  -0.017362   0.000257
     9  H   -0.049855  -0.002063   0.004680  -0.000355   0.000497  -0.000024
    10  O   -0.042883  -0.000803   0.001894  -0.000098   0.002846   0.000923
    11  H   -0.002134   0.009676   0.000106  -0.000012   0.000053  -0.000034
    12  C   -0.027407   0.005882   0.003582  -0.000768  -0.042729  -0.007936
    13  H    0.002184  -0.000256  -0.000102   0.000036  -0.006333   0.006116
    14  O    0.001554  -0.000083  -0.000270   0.000038   0.004700   0.000064
    15  H   -0.000615  -0.000013   0.001658  -0.000090   0.000062   0.000015
    16  C   -0.000017   0.000154  -0.022351  -0.001354   0.296757  -0.047990
    17  H   -0.004474   0.000595   0.015117   0.002772  -0.043369   0.005019
    18  O   -0.000244   0.000007   0.000315  -0.000151  -0.043938   0.002079
    19  H   -0.000041   0.000000   0.000004   0.000007   0.007592  -0.000122
    20  C    0.000159  -0.000197  -0.000603  -0.000175   0.315145  -0.045677
    21  H    0.001059  -0.000008  -0.000632   0.008061  -0.053337   0.006136
    22  H   -0.000088  -0.000009   0.000026  -0.000132  -0.043775  -0.004970
    23  O   -0.000011   0.000001   0.000001   0.000005  -0.051267   0.005740
    24  H    0.000039   0.000000   0.000001  -0.000070  -0.008804  -0.000618
              7          8          9         10         11         12
     1  C    0.234978   0.300053  -0.049855  -0.042883  -0.002134  -0.027407
     2  H   -0.047656  -0.070672  -0.002063  -0.000803   0.009676   0.005882
     3  O   -0.047367  -0.051896   0.004680   0.001894   0.000106   0.003582
     4  H    0.000946   0.005106  -0.000355  -0.000098  -0.000012  -0.000768
     5  C    0.155951  -0.017362   0.000497   0.002846   0.000053  -0.042729
     6  H   -0.030914   0.000257  -0.000024   0.000923  -0.000034  -0.007936
     7  O    8.397212  -0.047945   0.003917  -0.004742   0.000315  -0.012210
     8  C   -0.047945   5.106242   0.368582   0.198136  -0.028947   0.262535
     9  H    0.003917   0.368582   0.602206  -0.029907  -0.003189  -0.052945
    10  O   -0.004742   0.198136  -0.029907   8.298061   0.245173  -0.030532
    11  H    0.000315  -0.028947  -0.003189   0.245173   0.354065   0.005587
    12  C   -0.012210   0.262535  -0.052945  -0.030532   0.005587   4.978419
    13  H    0.000250  -0.035466   0.001741   0.001987  -0.000170   0.376955
    14  O    0.000049  -0.030187   0.000075   0.001038  -0.000105   0.215531
    15  H    0.000060  -0.004655   0.005195   0.000037   0.000002  -0.028963
    16  C   -0.035337  -0.053633   0.004394   0.001282  -0.000260   0.352678
    17  H    0.001504  -0.004081  -0.000035   0.000019   0.000019  -0.036661
    18  O    0.001391   0.004147  -0.000068  -0.000011   0.000002  -0.038050
    19  H   -0.000100   0.000665  -0.000034  -0.000006   0.000001  -0.013004
    20  C   -0.037216   0.000116   0.000019   0.000014  -0.000003   0.004521
    21  H    0.003258   0.000032  -0.000002   0.000000   0.000000   0.000102
    22  H    0.003381   0.000021  -0.000001  -0.000001   0.000000  -0.000145
    23  O    0.001711   0.000000   0.000000   0.000000   0.000000   0.000020
    24  H   -0.000060  -0.000024   0.000000   0.000000   0.000000   0.000260
             13         14         15         16         17         18
     1  C    0.002184   0.001554  -0.000615  -0.000017  -0.004474  -0.000244
     2  H   -0.000256  -0.000083  -0.000013   0.000154   0.000595   0.000007
     3  O   -0.000102  -0.000270   0.001658  -0.022351   0.015117   0.000315
     4  H    0.000036   0.000038  -0.000090  -0.001354   0.002772  -0.000151
     5  C   -0.006333   0.004700   0.000062   0.296757  -0.043369  -0.043938
     6  H    0.006116   0.000064   0.000015  -0.047990   0.005019   0.002079
     7  O    0.000250   0.000049   0.000060  -0.035337   0.001504   0.001391
     8  C   -0.035466  -0.030187  -0.004655  -0.053633  -0.004081   0.004147
     9  H    0.001741   0.000075   0.005195   0.004394  -0.000035  -0.000068
    10  O    0.001987   0.001038   0.000037   0.001282   0.000019  -0.000011
    11  H   -0.000170  -0.000105   0.000002  -0.000260   0.000019   0.000002
    12  C    0.376955   0.215531  -0.028963   0.352678  -0.036661  -0.038050
    13  H    0.505936  -0.028610   0.005039  -0.043028   0.004870   0.000412
    14  O   -0.028610   8.311360   0.244847  -0.061757  -0.001549  -0.008376
    15  H    0.005039   0.244847   0.355760  -0.002035   0.004180   0.000119
    16  C   -0.043028  -0.061757  -0.002035   5.079786   0.352891   0.179656
    17  H    0.004870  -0.001549   0.004180   0.352891   0.611822  -0.034502
    18  O    0.000412  -0.008376   0.000119   0.179656  -0.034502   8.368145
    19  H   -0.000554   0.024163  -0.000687  -0.028418  -0.001574   0.239815
    20  C   -0.000165  -0.000090   0.000000  -0.030301  -0.007711   0.000269
    21  H   -0.000004   0.000000  -0.000002  -0.013550   0.003451   0.000240
    22  H    0.000005   0.000001   0.000000   0.005414  -0.000065  -0.000145
    23  O   -0.000020   0.000000   0.000000  -0.000058   0.000245  -0.009770
    24  H    0.000011   0.000003   0.000000   0.003601  -0.000137   0.020212
             19         20         21         22         23         24
     1  C   -0.000041   0.000159   0.001059  -0.000088  -0.000011   0.000039
     2  H    0.000000  -0.000197  -0.000008  -0.000009   0.000001   0.000000
     3  O    0.000004  -0.000603  -0.000632   0.000026   0.000001   0.000001
     4  H    0.000007  -0.000175   0.008061  -0.000132   0.000005  -0.000070
     5  C    0.007592   0.315145  -0.053337  -0.043775  -0.051267  -0.008804
     6  H   -0.000122  -0.045677   0.006136  -0.004970   0.005740  -0.000618
     7  O   -0.000100  -0.037216   0.003258   0.003381   0.001711  -0.000060
     8  C    0.000665   0.000116   0.000032   0.000021   0.000000  -0.000024
     9  H   -0.000034   0.000019  -0.000002  -0.000001   0.000000   0.000000
    10  O   -0.000006   0.000014   0.000000  -0.000001   0.000000   0.000000
    11  H    0.000001  -0.000003   0.000000   0.000000   0.000000   0.000000
    12  C   -0.013004   0.004521   0.000102  -0.000145   0.000020   0.000260
    13  H   -0.000554  -0.000165  -0.000004   0.000005  -0.000020   0.000011
    14  O    0.024163  -0.000090   0.000000   0.000001   0.000000   0.000003
    15  H   -0.000687   0.000000  -0.000002   0.000000   0.000000   0.000000
    16  C   -0.028418  -0.030301  -0.013550   0.005414  -0.000058   0.003601
    17  H   -0.001574  -0.007711   0.003451  -0.000065   0.000245  -0.000137
    18  O    0.239815   0.000269   0.000240  -0.000145  -0.009770   0.020212
    19  H    0.341879  -0.000318  -0.000017   0.000016   0.000512  -0.000335
    20  C   -0.000318   4.889954   0.365052   0.386217   0.235083  -0.022246
    21  H   -0.000017   0.365052   0.656917  -0.037333  -0.038195  -0.008526
    22  H    0.000016   0.386217  -0.037333   0.531807  -0.030014   0.005030
    23  O    0.000512   0.235083  -0.038195  -0.030014   8.287591   0.241973
    24  H   -0.000335  -0.022246  -0.008526   0.005030   0.241973   0.337814
 Mulliken atomic charges:
              1
     1  C    0.297007
     2  H    0.148326
     3  O   -0.654873
     4  H    0.426115
     5  C    0.093909
     6  H    0.192497
     7  O   -0.541373
     8  C    0.098976
     9  H    0.147173
    10  O   -0.642426
    11  H    0.419857
    12  C    0.085280
    13  H    0.209165
    14  O   -0.672393
    15  H    0.420085
    16  C    0.063478
    17  H    0.131654
    18  O   -0.681553
    19  H    0.430555
    20  C   -0.051845
    21  H    0.107299
    22  H    0.184757
    23  O   -0.643546
    24  H    0.431877
 Sum of Mulliken atomic charges =   0.00000
 Mulliken charges with hydrogens summed into heavy atoms:
              1
     1  C    0.445333
     3  O   -0.228758
     5  C    0.286406
     7  O   -0.541373
     8  C    0.246150
    10  O   -0.222569
    12  C    0.294445
    14  O   -0.252308
    16  C    0.195132
    18  O   -0.250998
    20  C    0.240210
    23  O   -0.211669
 Sum of Mulliken charges with hydrogens summed into heavy atoms =   0.00000
 Electronic spatial extent (au):  <R**2>=         559162.9244
 Charge=              0.0000 electrons
 Dipole moment (field-independent basis, Debye):
    X=             -3.1436    Y=              1.6216    Z=             -1.0879  Tot=              3.7007
 Quadrupole moment (field-independent basis, Debye-Ang):
   XX=           -217.9174   YY=            -72.6379   ZZ=             -0.3109
   XY=             42.4589   XZ=             76.1196   YZ=            -57.7345
 Traceless Quadrupole moment (field-independent basis, Debye-Ang):
   XX=           -120.9620   YY=             24.3175   ZZ=             96.6445
   XY=             42.4589   XZ=             76.1196   YZ=            -57.7345
 Octapole moment (field-independent basis, Debye-Ang**2):
  XXX=         -10024.1476  YYY=            250.0418  ZZZ=           3643.7223  XYY=          -1660.7021
  XXY=           1146.4826  XXZ=           6501.2095  XZZ=          -3243.9020  YZZ=           2136.4286
  YYZ=           2429.0559  XYZ=          -1497.5462
 Hexadecapole moment (field-independent basis, Debye-Ang**3):
 XXXX=        -384562.2819 YYYY=          -1140.1188 ZZZZ=        -323377.0330 XXXY=          31313.7223
 XXXZ=         313644.9023 YYYX=           5532.4472 YYYZ=          -8450.3010 ZZZX=         186702.0727
 ZZZY=         -81368.5788 XXYY=         -38222.8134 XXZZ=        -229501.4925 YYZZ=         -81559.8594
 XXYZ=         -40102.4852 YYXZ=          55481.2324 ZZXY=          54621.1020
 N-N= 8.499109118138D+02 E-N=-3.310440671746D+03  KE= 6.815989205113D+02
 Calling FoFJK, ICntrl=      2127 FMM=F ISym2X=0 I1Cent= 0 IOpClX= 0 NMat=1 NMatS=1 NMatT=0.
 -------------------------------------------------------------------
 Center     Atomic                   Forces (Hartrees/Bohr)
 Number     Number              X              Y              Z
 -------------------------------------------------------------------
      1        6           0.005984658   -0.022878683    0.028497239
      2        1          -0.004311076    0.000040239    0.000589010
      3        8          -0.001735463    0.004246378   -0.007481568
      4        1          -0.003674118   -0.002871677    0.005556661
      5        6          -0.033801603    0.000557388    0.011500762
      6        1           0.001412172    0.002108275   -0.001303817
      7        8           0.006935106    0.022398372   -0.008233543
      8        6          -0.009951471    0.015069289   -0.001460289
      9        1           0.001320690   -0.001213390   -0.000755958
     10        8           0.011156006   -0.004049170   -0.012646429
     11        1          -0.000031978    0.000492348    0.000063865
     12        6          -0.018191601    0.016186886   -0.000886444
     13        1          -0.002544416    0.002317107   -0.009110529
     14        8           0.006991583   -0.015959842   -0.007147617
     15        1          -0.001824584    0.000016373    0.004668254
     16        6           0.036187714   -0.018921883    0.004609415
     17        1          -0.001485424   -0.000458988   -0.005016743
     18        8          -0.000402471    0.003987927   -0.002099400
     19        1          -0.000758695   -0.001484837   -0.001927546
     20        6           0.007058759   -0.001502066   -0.004457375
     21        1          -0.011116773    0.002337302    0.003547565
     22        1           0.005628398    0.003960985   -0.004689749
     23        8           0.002266177    0.001699913    0.008887357
     24        1           0.004888410   -0.006078245   -0.000703119
 -------------------------------------------------------------------
 Cartesian Forces:  Max     0.036187714 RMS     0.010067061

 GradGradGradGradGradGradGradGradGradGradGradGradGradGradGradGradGradGrad
 Berny optimization.
 Internal  Forces:  Max     0.019984569 RMS     0.005783020
 Search for a local minimum.
 Step number   1 out of a maximum of  142
 All quantities printed in internal units (Hartrees-Bohrs-Radians)
 Mixed Optimization -- RFO/linear search
 Second derivative matrix not updated -- first step.
 ITU=  0
     Eigenvalues ---    0.00548   0.01375   0.01446   0.01577   0.01599
     Eigenvalues ---    0.01617   0.01737   0.01946   0.02441   0.03495
     Eigenvalues ---    0.04366   0.04486   0.04827   0.05245   0.05361
     Eigenvalues ---    0.05739   0.05802   0.06062   0.06551   0.06828
     Eigenvalues ---    0.07055   0.07877   0.09087   0.10596   0.11380
     Eigenvalues ---    0.11921   0.13363   0.13812   0.15082   0.16000
     Eigenvalues ---    0.16000   0.16000   0.16000   0.16000   0.16537
     Eigenvalues ---    0.18850   0.19989   0.22051   0.23345   0.26674
     Eigenvalues ---    0.27404   0.29332   0.30706   0.32594   0.33340
     Eigenvalues ---    0.33513   0.33835   0.34176   0.34250   0.34471
     Eigenvalues ---    0.35225   0.37886   0.41872   0.42675   0.44478
     Eigenvalues ---    0.44692   0.46191   0.53278   0.53382   0.53775
     Eigenvalues ---    0.54012   0.540351000.000001000.000001000.00000
     Eigenvalues --- 1000.000001000.000001000.000001000.000001000.00000
     Eigenvalues --- 1000.000001000.000001000.000001000.000001000.00000
     Eigenvalues --- 1000.000001000.000001000.000001000.000001000.00000
     Eigenvalues --- 1000.000001000.000001000.000001000.000001000.00000
     Eigenvalues --- 1000.000001000.000001000.000001000.000001000.00000
     Eigenvalues --- 1000.000001000.000001000.000001000.000001000.00000
     Eigenvalues --- 1000.000001000.000001000.000001000.000001000.00000
     Eigenvalues --- 1000.000001000.000001000.000001000.000001000.00000
     Eigenvalues --- 1000.000001000.000001000.000001000.000001000.00000
     Eigenvalues --- 1000.000001000.000001000.000001000.000001000.00000
     Eigenvalues --- 1000.000001000.000001000.000001000.000001000.00000
     Eigenvalues --- 1000.000001000.000001000.000001000.000001000.00000
     Eigenvalues --- 1000.000001000.000001000.000001000.000001000.00000
     Eigenvalues --- 1000.000001000.00000
 RFO step:  Lambda=-1.89972276D-02 EMin= 5.47629481D-03
 Linear search not attempted -- first point.
 Iteration  1 RMS(Cart)=  0.08452684 RMS(Int)=  0.00443061
 Iteration  2 RMS(Cart)=  0.00505784 RMS(Int)=  0.00064648
 Iteration  3 RMS(Cart)=  0.00001369 RMS(Int)=  0.00064627
 Iteration  4 RMS(Cart)=  0.00000001 RMS(Int)=  0.00064627
 Iteration  1 RMS(Cart)=  0.00001566 RMS(Int)=  0.00001866
 Iteration  2 RMS(Cart)=  0.00001161 RMS(Int)=  0.00001977
 Iteration  3 RMS(Cart)=  0.00000912 RMS(Int)=  0.00002198
 Iteration  4 RMS(Cart)=  0.00000752 RMS(Int)=  0.00002445
 Iteration  5 RMS(Cart)=  0.00000641 RMS(Int)=  0.00002689
 Iteration  6 RMS(Cart)=  0.00000559 RMS(Int)=  0.00002921
 Iteration  7 RMS(Cart)=  0.00000494 RMS(Int)=  0.00003137
 Iteration  8 RMS(Cart)=  0.00000441 RMS(Int)=  0.00003338
 Iteration  9 RMS(Cart)=  0.00000395 RMS(Int)=  0.00003522
 Iteration 10 RMS(Cart)=  0.00000356 RMS(Int)=  0.00003692
 Iteration 11 RMS(Cart)=  0.00000322 RMS(Int)=  0.00003847
 Iteration 12 RMS(Cart)=  0.00000292 RMS(Int)=  0.00003988
 Iteration 13 RMS(Cart)=  0.00000265 RMS(Int)=  0.00004117
 Iteration 14 RMS(Cart)=  0.00000241 RMS(Int)=  0.00004235
 Iteration 15 RMS(Cart)=  0.00000220 RMS(Int)=  0.00004343
 Iteration 16 RMS(Cart)=  0.00000201 RMS(Int)=  0.00004441
 Iteration 17 RMS(Cart)=  0.00000184 RMS(Int)=  0.00004530
 Iteration 18 RMS(Cart)=  0.00000169 RMS(Int)=  0.00004611
 Iteration 19 RMS(Cart)=  0.00000156 RMS(Int)=  0.00004686
 Iteration 20 RMS(Cart)=  0.00000143 RMS(Int)=  0.00004753
 Iteration 21 RMS(Cart)=  0.00000132 RMS(Int)=  0.00004815
 Iteration 22 RMS(Cart)=  0.00000123 RMS(Int)=  0.00004872
 Iteration 23 RMS(Cart)=  0.00000114 RMS(Int)=  0.00004924
 Iteration 24 RMS(Cart)=  0.00000105 RMS(Int)=  0.00004971
 Iteration 25 RMS(Cart)=  0.00000098 RMS(Int)=  0.00005015
 Variable       Old X    -DE/DX   Delta X   Delta X   Delta X     New X
                                 (Linear)    (Quad)   (Total)
    R1        2.06910   0.00358   0.00000   0.00989   0.00989   2.07899
    R2        2.63916   0.00298   0.00000   0.00620   0.00620   2.64536
    R3        2.68997  -0.00754   0.00000  -0.00069  -0.00087   2.68910
    R4        2.89689   0.01140   0.00000   0.02544   0.02504   2.92193
    R5        1.82937  -0.00187   0.00000  -0.00335  -0.00335   1.82602
    R6        2.07034  -0.00098   0.00000  -0.00271  -0.00271   2.06763
    R7        2.78842  -0.00619   0.00000   0.01241   0.01279   2.80121
    R8        2.86954   0.00814   0.00000   0.02656   0.02703   2.89657
    R9        2.86578   0.00521   0.00000   0.01599   0.01599   2.88177
   R10        2.08459  -0.00061   0.00000  -0.00173  -0.00173   2.08286
   R11        2.65635  -0.00165   0.00000  -0.00354  -0.00354   2.65280
   R12        2.92699   0.00004   0.00000  -0.03562  -0.03603   2.89096
   R13        1.82700   0.00001   0.00000   0.00003   0.00003   1.82702
   R14        2.07609  -0.00392   0.00000  -0.01098  -0.01098   2.06512
   R15        2.69086  -0.00328   0.00000  -0.00749  -0.00749   2.68338
   R16        2.88170   0.00466   0.00000   0.00402   0.00415   2.88585
   R17        1.82720   0.00115   0.00000   0.00206   0.00206   1.82926
   R18        2.05312   0.00064   0.00000   0.00171   0.00171   2.05483
   R19        2.68072   0.00096   0.00000   0.00215   0.00215   2.68287
   R20        1.83299   0.00186   0.00000   0.00337   0.00337   1.83636
   R21        2.06542   0.00772   0.00000   0.02121   0.02121   2.08663
   R22        2.08159  -0.00598   0.00000  -0.01689  -0.01689   2.06470
   R23        2.65886   0.00353   0.00000   0.00762   0.00762   2.66648
   R24        1.83395  -0.00259   0.00000  -0.00470  -0.00470   1.82926
    A1        1.87202  -0.00205   0.00000  -0.02693  -0.02705   1.84496
    A2        1.77744   0.00340   0.00000   0.00838   0.00876   1.78619
    A3        1.87951   0.00513   0.00000  -0.02208  -0.02218   1.85733
    A4        2.03514  -0.00196   0.00000   0.01741   0.01698   2.05212
    A5        2.02880  -0.00692   0.00000   0.00727   0.00684   2.03564
    A6        1.84953   0.00429   0.00000   0.01225   0.01196   1.86149
    A7        1.91815  -0.00490   0.00000  -0.02739  -0.02739   1.89077
    A8        1.87364  -0.00353   0.00000   0.00225   0.00219   1.87583
    A9        1.92350  -0.00086   0.00000  -0.00118  -0.00141   1.92209
   A10        1.93231  -0.00045   0.00000  -0.01548  -0.01536   1.91696
   A11        1.87022   0.00358   0.00000  -0.01396  -0.01378   1.85644
   A12        1.86358   0.00214   0.00000   0.01642   0.01630   1.87988
   A13        1.99466  -0.00084   0.00000   0.01214   0.01225   2.00690
   A14        2.01434   0.01053   0.00000  -0.00357  -0.00377   2.01057
   A15        1.91033  -0.00265   0.00000   0.01171   0.01112   1.92144
   A16        1.84559   0.00759   0.00000   0.07714   0.07785   1.92344
   A17        1.88046   0.00978   0.00000   0.01179   0.01274   1.89320
   A18        1.94790   0.00214   0.00000  -0.00226  -0.00555   1.94234
   A19        1.89545   0.00381   0.00000  -0.00017  -0.00111   1.89434
   A20        1.98168  -0.01998   0.00000  -0.09314  -0.09381   1.88787
   A21        1.89434  -0.00085   0.00000  -0.00476  -0.00476   1.88958
   A22        1.91633  -0.00400   0.00000   0.00588   0.00549   1.92182
   A23        1.96879   0.00406   0.00000   0.00250   0.00144   1.97023
   A24        1.92146  -0.00081   0.00000  -0.01130  -0.01205   1.90941
   A25        1.94641  -0.00639   0.00000  -0.08410  -0.08459   1.86183
   A26        1.87420   0.00191   0.00000   0.01857   0.01934   1.89354
   A27        1.83273   0.00562   0.00000   0.07211   0.07242   1.90516
   A28        1.91214  -0.00889   0.00000  -0.04964  -0.04964   1.86250
   A29        1.86081   0.00799   0.00000   0.02395   0.02399   1.88480
   A30        1.95314  -0.00609   0.00000   0.02343   0.02398   1.97712
   A31        1.86151   0.00708   0.00000   0.02453   0.02445   1.88596
   A32        1.98136  -0.00738   0.00000  -0.03533  -0.03592   1.94544
   A33        1.89818  -0.00076   0.00000  -0.01397  -0.01471   1.88347
   A34        1.90427   0.00022   0.00000  -0.01909  -0.02015   1.88413
   A35        1.84788  -0.00134   0.00000  -0.00749  -0.00749   1.84039
   A36        1.91880  -0.00750   0.00000  -0.02710  -0.02902   1.88978
   A37        1.89252   0.00418   0.00000   0.01201   0.01211   1.90463
   A38        1.92379   0.00728   0.00000   0.03535   0.03452   1.95831
   A39        1.89549  -0.00084   0.00000  -0.02021  -0.01931   1.87618
   A40        1.88340   0.00753   0.00000   0.08504   0.08486   1.96825
   A41        1.94969  -0.01095   0.00000  -0.08629  -0.08554   1.86415
   A42        1.83937   0.00795   0.00000   0.04440   0.04440   1.88377
    D1        2.03267  -0.00330   0.00000  -0.08645  -0.08656   1.94610
    D2        0.05483  -0.00507   0.00000  -0.08826  -0.08818  -0.03335
    D3       -2.14701  -0.00273   0.00000  -0.13058  -0.13056  -2.27757
    D4        3.06735  -0.00821   0.00000  -0.02904  -0.02896   3.03838
    D5       -1.18495  -0.00940   0.00000  -0.04789  -0.04794  -1.23289
    D6        1.10362  -0.01667   0.00000  -0.01239  -0.01229   1.09133
    D7        1.28665  -0.00277   0.00000  -0.01865  -0.01814   1.26852
    D8       -0.81390  -0.00825   0.00000  -0.06653  -0.06660  -0.88051
    D9       -2.93849   0.00589   0.00000  -0.00572  -0.00576  -2.94424
   D10       -0.81283   0.00055   0.00000   0.02815   0.02859  -0.78424
   D11       -2.91339  -0.00494   0.00000  -0.01972  -0.01988  -2.93327
   D12        1.24521   0.00921   0.00000   0.04109   0.04097   1.28618
   D13       -3.10500   0.00500   0.00000  -0.01294  -0.01238  -3.11738
   D14        1.07763  -0.00049   0.00000  -0.06081  -0.06085   1.01678
   D15       -1.04696   0.01366   0.00000   0.00000   0.00000  -1.04695
   D16       -2.09590   0.00088   0.00000   0.00286   0.00259  -2.09331
   D17       -0.02990  -0.00010   0.00000  -0.00464  -0.00505  -0.03496
   D18        2.11445   0.00210   0.00000   0.01120   0.01087   2.12532
   D19        0.98637   0.00640   0.00000  -0.00584  -0.00585   0.98053
   D20       -3.12080  -0.00120   0.00000  -0.01848  -0.01839  -3.13919
   D21       -1.03954   0.00005   0.00000  -0.01302  -0.01307  -1.05261
   D22       -1.04697   0.00904   0.00000   0.00000  -0.00001  -1.04698
   D23        1.12905   0.00143   0.00000  -0.01263  -0.01256   1.11649
   D24       -3.07288   0.00269   0.00000  -0.00717  -0.00724  -3.08012
   D25       -3.10781   0.00445   0.00000  -0.01819  -0.01819  -3.12600
   D26       -0.93180  -0.00315   0.00000  -0.03083  -0.03073  -0.96253
   D27        1.14946  -0.00190   0.00000  -0.02537  -0.02541   1.12404
   D28        3.08246   0.00280   0.00000  -0.01843  -0.01861   3.06385
   D29       -1.13084  -0.00006   0.00000  -0.05140  -0.05130  -1.18214
   D30        1.00839  -0.00632   0.00000  -0.12815  -0.12804   0.88035
   D31       -1.16651  -0.00042   0.00000  -0.01448  -0.01491  -1.18142
   D32        0.90337  -0.00328   0.00000  -0.04744  -0.04760   0.85577
   D33        3.04260  -0.00954   0.00000  -0.12420  -0.12434   2.91827
   D34        0.89811   0.00498   0.00000  -0.01365  -0.01361   0.88450
   D35        2.96799   0.00212   0.00000  -0.04662  -0.04630   2.92170
   D36       -1.17596  -0.00414   0.00000  -0.12337  -0.12304  -1.29900
   D37        0.95035  -0.00121   0.00000   0.01216   0.01379   0.96414
   D38       -1.12548  -0.00379   0.00000  -0.04765  -0.04714  -1.17262
   D39        3.00839   0.00462   0.00000   0.02491   0.02277   3.03116
   D40        2.05983   0.00023   0.00000   0.01947   0.01967   2.07951
   D41       -2.04081  -0.00822   0.00000  -0.08437  -0.08426  -2.12507
   D42       -0.00001   0.00081   0.00000   0.00000  -0.00001  -0.00001
   D43       -2.15573   0.00460   0.00000   0.03986   0.03954  -2.11620
   D44        0.02680  -0.00385   0.00000  -0.06399  -0.06439  -0.03759
   D45        2.06761   0.00518   0.00000   0.02038   0.01986   2.08747
   D46        0.02209  -0.00393   0.00000  -0.02958  -0.02876  -0.00667
   D47        2.20462  -0.01238   0.00000  -0.13342  -0.13269   2.07193
   D48       -2.03775  -0.00335   0.00000  -0.04905  -0.04844  -2.08619
   D49        0.77161   0.00386   0.00000   0.02561   0.02514   0.79675
   D50        2.93769  -0.00329   0.00000  -0.02986  -0.02788   2.90981
   D51       -1.32108  -0.00098   0.00000  -0.00811  -0.00962  -1.33070
   D52        1.04695  -0.01476   0.00000   0.00000  -0.00002   1.04693
   D53       -1.11167  -0.00802   0.00000  -0.02410  -0.02384  -1.13551
   D54        3.04817  -0.00282   0.00000   0.03397   0.03352   3.08169
   D55       -1.03871  -0.01062   0.00000  -0.01178  -0.01128  -1.04999
   D56        3.08585  -0.00387   0.00000  -0.03588  -0.03511   3.05074
   D57        0.96251   0.00133   0.00000   0.02218   0.02226   0.98476
   D58       -3.11235  -0.00701   0.00000   0.03981   0.03987  -3.07248
   D59        1.01222  -0.00026   0.00000   0.01571   0.01604   1.02826
   D60       -1.11112   0.00494   0.00000   0.07377   0.07341  -1.03772
   D61        2.92101   0.00425   0.00000  -0.02742  -0.02751   2.89350
   D62        0.92024  -0.00829   0.00000  -0.06100  -0.06075   0.85950
   D63       -1.24945   0.00123   0.00000   0.00429   0.00412  -1.24533
   D64        1.19935  -0.00460   0.00000  -0.08180  -0.08008   1.11927
   D65       -0.89621  -0.00437   0.00000  -0.12169  -0.12420  -1.02041
   D66       -2.97856  -0.00164   0.00000  -0.09982  -0.09903  -3.07759
         Item               Value     Threshold  Converged?
 Maximum Force            0.013230     0.000450     NO 
 RMS     Force            0.004163     0.000300     NO 
 Maximum Displacement     0.448255     0.001800     NO 
 RMS     Displacement     0.084806     0.001200     NO 
 Predicted change in Energy=-1.181233D-02
 GradGradGradGradGradGradGradGradGradGradGradGradGradGradGradGradGradGrad

                          Input orientation:                          
 ---------------------------------------------------------------------
 Center     Atomic      Atomic             Coordinates (Angstroms)
 Number     Number       Type             X           Y           Z
 ---------------------------------------------------------------------
      1          6           0       21.068188   -1.220651  -32.707696
      2          1           0       20.226213   -1.637150  -32.135032
      3          8           0       20.704002    0.095911  -33.013730
      4          1           0       21.277461    0.693427  -32.515898
      5          6           0       23.493746   -1.064427  -32.375083
      6          1           0       24.107708   -1.969666  -32.347968
      7          8           0       22.163850   -1.411694  -31.820011
      8          6           0       21.296203   -2.172769  -33.904472
      9          1           0       20.487475   -2.052262  -34.643586
     10          8           0       21.384588   -3.500624  -33.457647
     11          1           0       20.587571   -3.702899  -32.949134
     12          6           0       22.623057   -1.804463  -34.570947
     13          1           0       23.311435   -2.652298  -34.531575
     14          8           0       22.476430   -1.461966  -35.941181
     15          1           0       21.717751   -0.863546  -35.998904
     16          6           0       23.256417   -0.631329  -33.826144
     17          1           0       22.651601    0.268155  -33.912733
     18          8           0       24.519293   -0.368242  -34.419031
     19          1           0       24.352215   -0.324655  -35.375324
     20          6           0       24.107057    0.003840  -31.476093
     21          1           0       23.514849    0.929459  -31.584596
     22          1           0       24.028189   -0.316389  -30.434464
     23          8           0       25.479333    0.199319  -31.740073
     24          1           0       25.563737    0.539764  -32.642291
 ---------------------------------------------------------------------
                    Distance matrix (angstroms):
                    1          2          3          4          5
     1  C    0.000000
     2  H    1.100153   0.000000
     3  O    1.399866   2.000973   0.000000
     4  H    1.935014   2.584912   0.966290   0.000000
     5  C    2.453236   3.326020   3.088191   2.832277   0.000000
     6  H    3.151049   3.901528   4.036715   3.889803   1.094141
     7  O    1.423010   1.975983   2.414331   2.387777   1.482337
     8  C    1.546218   2.136044   2.508193   3.184897   2.897697
     9  H    2.185515   2.556055   2.705173   3.562294   3.893532
    10  O    2.420912   2.561968   3.687184   4.299818   3.399345
    11  H    2.539850   2.249591   3.801143   4.471166   3.966979
    12  C    2.496028   3.421482   3.117550   3.503328   2.475392
    13  H    3.226191   4.036402   4.081080   4.403848   2.684219
    14  O    3.535082   4.425036   3.760114   4.220878   3.729614
    15  H    3.373649   4.213390   3.295377   3.840489   4.040618
    16  C    2.527167   3.612986   2.775557   2.718086   1.532800
    17  H    2.485126   3.559904   2.151979   2.005059   2.202123
    18  O    3.945300   5.025666   4.092280   3.906217   2.390427
    19  H    4.324798   5.407960   4.366172   4.320523   3.207129
    20  C    3.500135   4.264739   3.735450   3.092464   1.524968
    21  H    3.445356   4.207801   3.261608   2.434941   2.144969
    22  H    3.840166   4.369366   4.227626   3.594245   2.147369
    23  O    4.734006   5.578879   4.943347   4.301369   2.437796
    24  H    4.828385   5.786660   4.894078   4.290891   2.632431
                    6          7          8          9         10
     6  H    0.000000
     7  O    2.090133   0.000000
     8  C    3.220018   2.382651   0.000000
     9  H    4.287514   3.345615   1.102204   0.000000
    10  O    3.315208   2.766357   1.403803   2.075817   0.000000
    11  H    3.969491   3.001532   1.938073   2.367655   0.966818
    12  C    2.678268   2.816520   1.529830   2.151138   2.377016
    13  H    2.422432   3.195095   2.164340   2.889177   2.363413
    14  O    3.978695   4.133313   2.458935   2.447069   3.393551
    15  H    4.501638   4.238234   2.505677   2.182547   3.677386
    16  C    2.168144   2.413968   2.494916   3.217810   3.445633
    17  H    3.094606   2.727504   2.792003   3.256059   4.002014
    18  O    2.650144   3.659482   3.729530   4.375146   4.534584
    19  H    3.454090   4.314029   3.862401   4.296077   4.750902
    20  C    2.157520   2.428593   4.305293   5.230864   4.860006
    21  H    3.056002   2.713229   4.464082   5.235750   5.260415
    22  H    2.530049   2.568111   4.790704   5.767722   5.125194
    23  O    2.637307   3.687029   5.273519   6.198279   5.779842
    24  H    2.916142   4.005442   5.211793   6.040879   5.869823
                   11         12         13         14         15
    11  H    0.000000
    12  C    3.221419   0.000000
    13  H    3.320741   1.092812   0.000000
    14  O    4.188307   1.419981   2.025121   0.000000
    15  H    4.317445   1.934934   2.809363   0.968005   0.000000
    16  C    4.162502   1.527127   2.141255   2.402440   2.672509
    17  H    4.577992   2.174811   3.057351   2.671817   2.550477
    18  O    5.360874   2.383594   2.586213   2.772447   3.254223
    19  H    5.609944   2.413885   2.685713   2.265444   2.760372
    20  C    5.319449   3.879476   4.126021   4.974389   5.188156
    21  H    5.647092   4.145831   4.642741   5.077112   5.092205
    22  H    5.443332   4.615111   4.770380   5.834744   6.049835
    23  O    6.373262   4.493028   4.541364   5.424629   5.780729
    24  H    6.546493   4.226430   4.339529   4.941767   5.294124
                   16         17         18         19         20
    16  C    0.000000
    17  H    1.087369   0.000000
    18  O    1.419713   2.037060   0.000000
    19  H    1.922181   2.320061   0.971758   0.000000
    20  C    2.578715   2.850514   2.994873   3.920716   0.000000
    21  H    2.743608   2.569580   3.275204   4.079658   1.104198
    22  H    3.492609   3.786164   4.015052   4.951481   1.092592
    23  O    3.159593   3.566688   2.901830   3.841874   1.411042
    24  H    2.845469   3.188782   2.252142   3.111989   1.941430
                   21         22         23         24
    21  H    0.000000
    22  H    1.771569   0.000000
    23  O    2.101541   2.019007   0.000000
    24  H    2.338488   2.822305   0.968000   0.000000
 Symmetry turned off by external request.
 Stoichiometry    C6H12O6
 Framework group  C1[X(C6H12O6)]
 Deg. of freedom    66
 Full point group                 C1      NOp   1
 Rotational constants (GHZ):      1.2613155      0.7728150      0.6225798
 Standard basis: 6-31G(d) (6D, 7F)
 Integral buffers will be    131072 words long.
 Raffenetti 2 integral format.
 Two-electron integral symmetry is turned off.
   204 basis functions,   384 primitive gaussians,   204 cartesian basis functions
    48 alpha electrons       48 beta electrons
       nuclear repulsion energy       843.9263974433 Hartrees.
 NAtoms=   24 NActive=   24 NUniq=   24 SFac= 1.00D+00 NAtFMM=   50 NAOKFM=F Big=F
 One-electron integrals computed using PRISM.
 NBasis=   204 RedAO= T  NBF=   204
 NBsUse=   204 1.00D-06 NBFU=   204
 Initial guess read from the read-write file.
 B after Tr=     0.000000    0.000000    0.000000
         Rot=    1.000000    0.000000    0.000000    0.000000 Ang=   0.00 deg.
 Harris functional with IExCor= 1009 diagonalized for initial guess.
 ExpMin= 1.61D-01 ExpMax= 5.48D+03 ExpMxC= 8.25D+02 IAcc=1 IRadAn=         1 AccDes= 0.00D+00
 HarFok:  IExCor= 1009 AccDes= 0.00D+00 IRadAn=         1 IDoV= 1
 ScaDFX=  1.000000  1.000000  1.000000  1.000000
 FoFCou: FMM=F IPFlag=           0 FMFlag=      100000 FMFlg1=           0
         NFxFlg=           0 DoJE=T BraDBF=F KetDBF=T FulRan=T
         Omega=  0.000000  0.000000  1.000000  0.000000  0.000000 ICntrl=     500 IOpCl=  0
         NMat0=    1 NMatS0=    1 NMatT0=    0 NMatD0=    1 NMtDS0=    0 NMtDT0=    0
         I1Cent=           4 NGrid=           0.
 Symmetry not used in FoFCou.
 Requested convergence on RMS density matrix=1.00D-08 within 128 cycles.
 Requested convergence on MAX density matrix=1.00D-06.
 Requested convergence on             energy=1.00D-06.
 No special actions if energy rises.
 Keep R1 ints in memory in canonical form, NReq=223279287.
 Integral accuracy reduced to 1.0D-05 until final iterations.
 Initial convergence to 1.0D-05 achieved.  Increase integral accuracy.
 SCF Done:  E(RM062X) =  -686.855063947     A.U. after   13 cycles
             Convg  =    0.6583D-08             -V/T =  2.0078
 Calling FoFJK, ICntrl=      2127 FMM=F ISym2X=0 I1Cent= 0 IOpClX= 0 NMat=1 NMatS=1 NMatT=0.
 -------------------------------------------------------------------
 Center     Atomic                   Forces (Hartrees/Bohr)
 Number     Number              X              Y              Z
 -------------------------------------------------------------------
      1        6          -0.006379360   -0.037124317    0.029247433
      2        1           0.000245188   -0.001606606    0.001441978
      3        8           0.004988069   -0.000130198   -0.009827913
      4        1          -0.000909786    0.000324399    0.004459772
      5        6          -0.031680243    0.001230900    0.002559674
      6        1           0.000603122    0.000251617   -0.001854677
      7        8           0.010251163    0.025116049   -0.011046226
      8        6          -0.001580623    0.012623167   -0.007168682
      9        1          -0.001173100    0.000573452    0.001289045
     10        8          -0.000085467    0.002581011    0.000287418
     11        1          -0.000893715   -0.001472095    0.001364848
     12        6          -0.007743771    0.008875855   -0.003186075
     13        1          -0.000345130   -0.000545780    0.000041418
     14        8           0.002389423   -0.000178366    0.000224583
     15        1          -0.000385246    0.001444142   -0.001829901
     16        6           0.034129609   -0.013898703   -0.007116551
     17        1          -0.003456400    0.001045809    0.001850107
     18        8           0.003422205    0.003453454    0.003524345
     19        1           0.000554975   -0.001315334    0.000039122
     20        6           0.004510170   -0.000733049   -0.003755102
     21        1           0.001131482    0.001505826    0.000562027
     22        1          -0.000933991   -0.000824839   -0.000209824
     23        8          -0.005818376    0.001918728    0.002559293
     24        1          -0.000840199   -0.003115122   -0.003456110
 -------------------------------------------------------------------
 Cartesian Forces:  Max     0.037124317 RMS     0.009319787

 GradGradGradGradGradGradGradGradGradGradGradGradGradGradGradGradGradGrad
 Berny optimization.
 Using GEDIIS/GDIIS optimizer.
 Internal  Forces:  Max     0.015075971 RMS     0.004573804
 Search for a local minimum.
 Step number   2 out of a maximum of  142
 All quantities printed in internal units (Hartrees-Bohrs-Radians)
 Mixed Optimization -- RFO/linear search
 Update second derivatives using D2CorX and points    1    2
 DE= -8.82D-03 DEPred=-1.18D-02 R= 7.46D-01
 SS=  1.41D+00  RLast= 5.01D-01 DXNew= 5.0454D-01 1.5045D+00
 Trust test= 7.46D-01 RLast= 5.01D-01 DXMaxT set to 5.05D-01
 ITU=  1  0
 Use linear search instead of GDIIS.
     Eigenvalues ---    0.00577   0.01374   0.01437   0.01538   0.01545
     Eigenvalues ---    0.01617   0.01701   0.01876   0.02367   0.03456
     Eigenvalues ---    0.04305   0.04484   0.04823   0.05251   0.05389
     Eigenvalues ---    0.05729   0.05889   0.06141   0.06637   0.06995
     Eigenvalues ---    0.07291   0.07871   0.08956   0.10316   0.11571
     Eigenvalues ---    0.12509   0.13871   0.14124   0.15554   0.15897
     Eigenvalues ---    0.16000   0.16000   0.16000   0.16604   0.17034
     Eigenvalues ---    0.19197   0.20147   0.22826   0.23131   0.26761
     Eigenvalues ---    0.28628   0.30067   0.31658   0.32841   0.33340
     Eigenvalues ---    0.33532   0.33843   0.34168   0.34192   0.34406
     Eigenvalues ---    0.35335   0.38093   0.41932   0.42702   0.44682
     Eigenvalues ---    0.45170   0.46179   0.53344   0.53389   0.53842
     Eigenvalues ---    0.54010   0.540871000.000001000.000001000.00000
     Eigenvalues --- 1000.000001000.000001000.000001000.000001000.00000
     Eigenvalues --- 1000.000001000.000001000.000001000.000001000.00000
     Eigenvalues --- 1000.000001000.000001000.000001000.000001000.00000
     Eigenvalues --- 1000.000001000.000001000.000001000.000001000.00000
     Eigenvalues --- 1000.000001000.000001000.000001000.000001000.00000
     Eigenvalues --- 1000.000001000.000001000.000001000.000001000.00000
     Eigenvalues --- 1000.000001000.000001000.000001000.000001000.00000
     Eigenvalues --- 1000.000001000.000001000.000001000.000001000.00000
     Eigenvalues --- 1000.000001000.000001000.000001000.000001000.00000
     Eigenvalues --- 1000.000001000.000001000.000001000.000001000.00000
     Eigenvalues --- 1000.000001000.000001000.000001000.000001000.00000
     Eigenvalues --- 1000.000001000.000001000.000001000.000001000.00000
     Eigenvalues --- 1000.000001000.000001000.000001000.000001000.00000
     Eigenvalues --- 1000.000001000.00000
 RFO step:  Lambda=-4.55610037D-03 EMin= 5.76988733D-03
 Quartic linear search produced a step of -0.05968.
 Iteration  1 RMS(Cart)=  0.04712089 RMS(Int)=  0.00224629
 Iteration  2 RMS(Cart)=  0.00224973 RMS(Int)=  0.00013839
 Iteration  3 RMS(Cart)=  0.00000686 RMS(Int)=  0.00013830
 Iteration  4 RMS(Cart)=  0.00000000 RMS(Int)=  0.00013830
 Iteration  1 RMS(Cart)=  0.00000678 RMS(Int)=  0.00000667
 Iteration  2 RMS(Cart)=  0.00000426 RMS(Int)=  0.00000726
 Iteration  3 RMS(Cart)=  0.00000282 RMS(Int)=  0.00000816
 Iteration  4 RMS(Cart)=  0.00000204 RMS(Int)=  0.00000892
 Iteration  5 RMS(Cart)=  0.00000164 RMS(Int)=  0.00000951
 Iteration  6 RMS(Cart)=  0.00000142 RMS(Int)=  0.00000998
 Iteration  7 RMS(Cart)=  0.00000129 RMS(Int)=  0.00001038
 Iteration  8 RMS(Cart)=  0.00000120 RMS(Int)=  0.00001074
 Iteration  9 RMS(Cart)=  0.00000113 RMS(Int)=  0.00001106
 Iteration 10 RMS(Cart)=  0.00000106 RMS(Int)=  0.00001137
 Iteration 11 RMS(Cart)=  0.00000100 RMS(Int)=  0.00001166
 Variable       Old X    -DE/DX   Delta X   Delta X   Delta X     New X
                                 (Linear)    (Quad)   (Total)
    R1        2.07899   0.00117  -0.00059   0.00530   0.00471   2.08370
    R2        2.64536   0.00031  -0.00037   0.00199   0.00162   2.64698
    R3        2.68910  -0.01179   0.00005  -0.00593  -0.00576   2.68333
    R4        2.92193  -0.00163  -0.00149  -0.01019  -0.01159   2.91033
    R5        1.82602   0.00196   0.00020   0.00256   0.00276   1.82878
    R6        2.06763   0.00008   0.00016  -0.00039  -0.00023   2.06740
    R7        2.80121  -0.00987  -0.00076  -0.00267  -0.00347   2.79774
    R8        2.89657  -0.00572  -0.00161  -0.02228  -0.02404   2.87253
    R9        2.88177  -0.00419  -0.00095  -0.00871  -0.00967   2.87210
   R10        2.08286   0.00006   0.00010  -0.00023  -0.00013   2.08274
   R11        2.65280  -0.00058   0.00021  -0.00198  -0.00177   2.65104
   R12        2.89096   0.00971   0.00215  -0.00033   0.00187   2.89283
   R13        1.82702   0.00177   0.00000   0.00298   0.00298   1.83000
   R14        2.06512   0.00021   0.00066  -0.00189  -0.00123   2.06388
   R15        2.68338   0.00164   0.00045   0.00188   0.00232   2.68570
   R16        2.88585  -0.00068  -0.00025  -0.00497  -0.00529   2.88056
   R17        1.82926   0.00129  -0.00012   0.00263   0.00251   1.83177
   R18        2.05483   0.00264  -0.00010   0.00715   0.00705   2.06188
   R19        2.68287   0.00245  -0.00013   0.00568   0.00555   2.68842
   R20        1.83636  -0.00019  -0.00020   0.00042   0.00022   1.83657
   R21        2.08663   0.00061  -0.00127   0.00634   0.00507   2.09170
   R22        2.06470   0.00011   0.00101  -0.00350  -0.00249   2.06221
   R23        2.66648  -0.00647  -0.00045  -0.01149  -0.01194   2.65454
   R24        1.82926   0.00205   0.00028   0.00245   0.00273   1.83199
    A1        1.84496   0.00327   0.00161   0.02784   0.02965   1.87462
    A2        1.78619   0.00337  -0.00052   0.01359   0.01303   1.79922
    A3        1.85733   0.00559   0.00132   0.00342   0.00484   1.86218
    A4        2.05212  -0.00513  -0.00101  -0.00913  -0.01075   2.04136
    A5        2.03564  -0.01186  -0.00041  -0.02989  -0.03054   2.00510
    A6        1.86149   0.00769  -0.00071   0.00225   0.00127   1.86276
    A7        1.89077  -0.00200   0.00163  -0.01732  -0.01568   1.87508
    A8        1.87583  -0.00451  -0.00013   0.00962   0.00941   1.88524
    A9        1.92209   0.00009   0.00008  -0.01069  -0.01085   1.91124
   A10        1.91696   0.00404   0.00092   0.00127   0.00154   1.91849
   A11        1.85644   0.01063   0.00082   0.00459   0.00558   1.86202
   A12        1.87988   0.00108  -0.00097   0.02787   0.02698   1.90686
   A13        2.00690  -0.01090  -0.00073  -0.02898  -0.02978   1.97713
   A14        2.01057   0.00469   0.00022  -0.00613  -0.00593   2.00464
   A15        1.92144  -0.00076  -0.00066  -0.00686  -0.00755   1.91389
   A16        1.92344  -0.00364  -0.00465   0.00699   0.00224   1.92568
   A17        1.89320   0.00516  -0.00076   0.00155   0.00093   1.89413
   A18        1.94234   0.00126   0.00033   0.00394   0.00453   1.94688
   A19        1.89434   0.00337   0.00007   0.01075   0.01087   1.90520
   A20        1.88787  -0.00523   0.00560  -0.01651  -0.01097   1.87689
   A21        1.88958   0.00234   0.00028   0.01192   0.01220   1.90178
   A22        1.92182  -0.00656  -0.00033  -0.00898  -0.00923   1.91260
   A23        1.97023   0.00851  -0.00009   0.02467   0.02460   1.99483
   A24        1.90941   0.00039   0.00072  -0.00528  -0.00462   1.90479
   A25        1.86183  -0.00040   0.00505  -0.02725  -0.02205   1.83977
   A26        1.89354   0.00166  -0.00115   0.00399   0.00274   1.89628
   A27        1.90516  -0.00381  -0.00432   0.01212   0.00760   1.91276
   A28        1.86250   0.00340   0.00296   0.00773   0.01070   1.87319
   A29        1.88480   0.00229  -0.00143   0.00445   0.00291   1.88770
   A30        1.97712  -0.00522  -0.00143  -0.00619  -0.00768   1.96944
   A31        1.88596   0.00045  -0.00146  -0.01892  -0.02041   1.86555
   A32        1.94544  -0.00389   0.00214  -0.01767  -0.01557   1.92987
   A33        1.88347   0.00569   0.00088   0.03002   0.03103   1.91450
   A34        1.88413   0.00133   0.00120   0.01008   0.01126   1.89538
   A35        1.84039   0.00055   0.00045   0.00136   0.00181   1.84220
   A36        1.88978   0.00224   0.00173  -0.00002   0.00179   1.89156
   A37        1.90463   0.00124  -0.00072   0.01184   0.01112   1.91575
   A38        1.95831  -0.00589  -0.00206  -0.01805  -0.02006   1.93826
   A39        1.87618  -0.00061   0.00115  -0.00043   0.00062   1.87680
   A40        1.96825   0.00050  -0.00506   0.00991   0.00480   1.97306
   A41        1.86415   0.00273   0.00511  -0.00224   0.00288   1.86702
   A42        1.88377  -0.00237  -0.00265  -0.00318  -0.00583   1.87795
    D1        1.94610  -0.00186   0.00517  -0.11265  -0.10733   1.83877
    D2       -0.03335  -0.00560   0.00526  -0.14397  -0.13845  -0.17180
    D3       -2.27757   0.00060   0.00779  -0.10586  -0.09847  -2.37604
    D4        3.03838  -0.00482   0.00173   0.01138   0.01324   3.05162
    D5       -1.23289  -0.00101   0.00286   0.05040   0.05335  -1.17955
    D6        1.09133  -0.01508   0.00073   0.00128   0.00204   1.09337
    D7        1.26852  -0.00230   0.00108  -0.02758  -0.02657   1.24194
    D8       -0.88051  -0.00092   0.00398  -0.03264  -0.02868  -0.90919
    D9       -2.94424   0.00443   0.00034  -0.01760  -0.01724  -2.96148
   D10       -0.78424  -0.00342  -0.00171  -0.04753  -0.04916  -0.83340
   D11       -2.93327  -0.00203   0.00119  -0.05259  -0.05126  -2.98453
   D12        1.28618   0.00332  -0.00245  -0.03755  -0.03982   1.24636
   D13       -3.11738   0.00698   0.00074  -0.00998  -0.00934  -3.12672
   D14        1.01678   0.00837   0.00363  -0.01505  -0.01145   1.00533
   D15       -1.04695   0.01372   0.00000   0.00000  -0.00001  -1.04696
   D16       -2.09331   0.00136  -0.00015   0.00303   0.00294  -2.09037
   D17       -0.03496   0.00465   0.00030  -0.00223  -0.00207  -0.03702
   D18        2.12532  -0.00156  -0.00065  -0.01834  -0.01900   2.10631
   D19        0.98053   0.00732   0.00035   0.00847   0.00863   0.98916
   D20       -3.13919   0.00045   0.00110  -0.01517  -0.01429   3.12971
   D21       -1.05261  -0.00081   0.00078  -0.01923  -0.01853  -1.07114
   D22       -1.04698   0.00671   0.00000   0.00000   0.00000  -1.04698
   D23        1.11649  -0.00015   0.00075  -0.02363  -0.02292   1.09357
   D24       -3.08012  -0.00141   0.00043  -0.02770  -0.02716  -3.10728
   D25       -3.12600   0.00444   0.00109  -0.02088  -0.01972   3.13747
   D26       -0.96253  -0.00243   0.00183  -0.04451  -0.04264  -1.00517
   D27        1.12404  -0.00368   0.00152  -0.04858  -0.04688   1.07717
   D28        3.06385  -0.00184   0.00111  -0.04744  -0.04636   3.01749
   D29       -1.18214  -0.00065   0.00306  -0.04152  -0.03848  -1.22062
   D30        0.88035  -0.00006   0.00764  -0.04766  -0.04010   0.84026
   D31       -1.18142  -0.00442   0.00089  -0.01954  -0.01843  -1.19985
   D32        0.85577  -0.00323   0.00284  -0.01362  -0.01055   0.84522
   D33        2.91827  -0.00264   0.00742  -0.01976  -0.01217   2.90610
   D34        0.88450   0.00306   0.00081  -0.01198  -0.01132   0.87319
   D35        2.92170   0.00426   0.00276  -0.00606  -0.00343   2.91826
   D36       -1.29900   0.00485   0.00734  -0.01220  -0.00505  -1.30405
   D37        0.96414  -0.00139  -0.00082  -0.00717  -0.00817   0.95598
   D38       -1.17262   0.00125   0.00281  -0.00600  -0.00321  -1.17583
   D39        3.03116  -0.00035  -0.00136  -0.01113  -0.01228   3.01888
   D40        2.07951  -0.00448  -0.00117  -0.00382  -0.00499   2.07452
   D41       -2.12507  -0.00392   0.00503  -0.02839  -0.02343  -2.14850
   D42       -0.00001  -0.00277   0.00000   0.00000   0.00000  -0.00002
   D43       -2.11620  -0.00048  -0.00236  -0.00499  -0.00726  -2.12345
   D44       -0.03759   0.00007   0.00384  -0.02955  -0.02570  -0.06329
   D45        2.08747   0.00123  -0.00119  -0.00117  -0.00227   2.08520
   D46       -0.00667  -0.00007   0.00172  -0.00366  -0.00197  -0.00864
   D47        2.07193   0.00049   0.00792  -0.02823  -0.02041   2.05153
   D48       -2.08619   0.00164   0.00289   0.00016   0.00302  -2.08318
   D49        0.79675   0.00264  -0.00150   0.02902   0.02775   0.82450
   D50        2.90981  -0.00064   0.00166   0.01441   0.01593   2.92573
   D51       -1.33070  -0.00086   0.00057   0.01054   0.01104  -1.31967
   D52        1.04693  -0.01323   0.00000   0.00000   0.00000   1.04693
   D53       -1.13551  -0.00561   0.00142   0.01658   0.01794  -1.11757
   D54        3.08169  -0.00852  -0.00200  -0.00414  -0.00602   3.07567
[...]
     5  C    2.444151   3.315070   3.033181   3.344234   0.000000
     6  H    3.148604   3.907351   3.982936   4.357603   1.095159
     7  O    1.422953   1.970270   2.413030   2.602087   1.474925
     8  C    1.533713   2.147669   2.437141   3.262513   2.891596
     9  H    2.168978   2.558603   2.627953   3.511958   3.887310
    10  O    2.411150   2.585532   3.643267   4.320082   3.383802
    11  H    2.517950   2.258852   3.785749   4.327614   3.913706
    12  C    2.485477   3.430802   3.008702   3.866698   2.461857
    13  H    3.199481   4.028447   3.974289   4.769032   2.665239
    14  O    3.550475   4.461742   3.671391   4.605611   3.717841
    15  H    3.439198   4.318931   3.227279   4.160799   4.012072
    16  C    2.519188   3.608286   2.673839   3.300957   1.521621
    17  H    2.472727   3.542407   2.038842   2.616287   2.179023
    18  O    3.943551   5.026181   3.999350   4.568339   2.366249
    19  H    4.342367   5.430163   4.312238   5.001999   3.177594
    20  C    3.494331   4.251933   3.698275   3.660080   1.521678
    21  H    3.435905   4.184094   3.230020   3.025309   2.142983
    22  H    3.846697   4.368112   4.227733   4.026751   2.142007
    23  O    4.710649   5.555799   4.866507   4.919422   2.425426
    24  H    4.717001   5.679477   4.772944   4.977588   2.496375
                    6          7          8          9         10
     6  H    0.000000
     7  O    2.092732   0.000000
     8  C    3.218543   2.376161   0.000000
     9  H    4.286171   3.336099   1.101686   0.000000
    10  O    3.304661   2.753364   1.403645   2.080720   0.000000
    11  H    3.918353   2.945519   1.948687   2.407823   0.968077
    12  C    2.661030   2.805935   1.537990   2.168193   2.376550
    13  H    2.394763   3.166782   2.153938   2.893134   2.334880
    14  O    3.948746   4.136210   2.484706   2.499588   3.400814
    15  H    4.467641   4.267278   2.608707   2.343647   3.777262
    16  C    2.151708   2.404125   2.498748   3.226658   3.438940
    17  H    3.072889   2.706215   2.799294   3.271880   3.999500
    18  O    2.605392   3.642291   3.746939   4.407723   4.532886
    19  H    3.370517   4.301884   3.874123   4.338838   4.718926
    20  C    2.160049   2.433446   4.294452   5.216021   4.847590
    21  H    3.057905   2.716273   4.447438   5.213100   5.243919
    22  H    2.534675   2.580453   4.791053   5.763948   5.124638
    23  O    2.630032   3.681449   5.243217   6.162634   5.752123
    24  H    2.714495   3.900480   5.039628   5.879450   5.663840
                   11         12         13         14         15
    11  H    0.000000
    12  C    3.225575   0.000000
    13  H    3.288424   1.093342   0.000000
    14  O    4.226112   1.420024   2.016510   0.000000
    15  H    4.464987   1.946253   2.819044   0.969742   0.000000
    16  C    4.142031   1.523279   2.142673   2.404734   2.624447
    17  H    4.566318   2.182341   3.066797   2.709649   2.523782
    18  O    5.344876   2.395872   2.605548   2.785681   3.180915
    19  H    5.585535   2.399744   2.642010   2.264800   2.691396
    20  C    5.267960   3.851805   4.099788   4.943047   5.115473
    21  H    5.598137   4.116285   4.617180   5.051580   5.014657
    22  H    5.395115   4.597043   4.746602   5.814235   6.006419
    23  O    6.310394   4.439090   4.498913   5.349606   5.640747
    24  H    6.328495   4.009986   4.097207   4.721047   5.028554
                   16         17         18         19         20
    16  C    0.000000
    17  H    1.087896   0.000000
    18  O    1.427207   2.057154   0.000000
    19  H    1.937454   2.405284   0.971354   0.000000
    20  C    2.545062   2.794243   2.930031   3.873818   0.000000
    21  H    2.712221   2.507315   3.226313   4.071668   1.104054
    22  H    3.465195   3.736256   3.950389   4.899080   1.093847
    23  O    3.101015   3.488702   2.790621   3.733768   1.404744
    24  H    2.672386   3.081564   2.002002   2.885338   1.930275
                   21         22         23         24
    21  H    0.000000
    22  H    1.773675   0.000000
    23  O    2.091880   2.024080   0.000000
    24  H    2.415418   2.816722   0.971518   0.000000
 Symmetry turned off by external request.
 Stoichiometry    C6H12O6
 Framework group  C1[X(C6H12O6)]
 Deg. of freedom    66
 Full point group                 C1      NOp   1
 Rotational constants (GHZ):      1.2766972      0.7827688      0.6302747

 **********************************************************************

            Population analysis using the SCF density.

 **********************************************************************

 Alpha  occ. eigenvalues --  -19.67538 -19.65833 -19.65603 -19.65275 -19.64723
 Alpha  occ. eigenvalues --  -19.61611 -10.66379 -10.61278 -10.60555 -10.60017
 Alpha  occ. eigenvalues --  -10.59625 -10.58378  -1.21122  -1.17358  -1.15997
 Alpha  occ. eigenvalues --   -1.14664  -1.13340  -1.12208  -0.89075  -0.87063
 Alpha  occ. eigenvalues --   -0.78000  -0.75034  -0.71158  -0.66756  -0.65384
 Alpha  occ. eigenvalues --   -0.61375  -0.60910  -0.58163  -0.56929  -0.56275
 Alpha  occ. eigenvalues --   -0.54701  -0.53266  -0.50932  -0.50220  -0.48862
 Alpha  occ. eigenvalues --   -0.47272  -0.46425  -0.45537  -0.44197  -0.42505
 Alpha  occ. eigenvalues --   -0.41219  -0.39526  -0.38308  -0.36579  -0.35420
 Alpha  occ. eigenvalues --   -0.34875  -0.33772  -0.32062
 Alpha virt. eigenvalues --    0.08719   0.09959   0.11234   0.13032   0.14626
 Alpha virt. eigenvalues --    0.16298   0.17844   0.18568   0.18967   0.20735
 Alpha virt. eigenvalues --    0.21477   0.22329   0.23214   0.24796   0.25642
 Alpha virt. eigenvalues --    0.26813   0.28354   0.30884   0.31682   0.32616
 Alpha virt. eigenvalues --    0.33850   0.35777   0.36745   0.39237   0.57226
 Alpha virt. eigenvalues --    0.58287   0.60004   0.61385   0.61664   0.63322
 Alpha virt. eigenvalues --    0.65090   0.67032   0.68342   0.69572   0.71438
 Alpha virt. eigenvalues --    0.73976   0.75745   0.77251   0.80000   0.81349
 Alpha virt. eigenvalues --    0.84646   0.86160   0.86848   0.87260   0.88156
 Alpha virt. eigenvalues --    0.90627   0.91485   0.92197   0.93340   0.94589
 Alpha virt. eigenvalues --    0.95507   0.95819   0.96587   0.97727   1.00826
 Alpha virt. eigenvalues --    1.02601   1.03924   1.05446   1.06597   1.07997
 Alpha virt. eigenvalues --    1.09515   1.10337   1.13227   1.14849   1.15892
 Alpha virt. eigenvalues --    1.17606   1.19481   1.22406   1.24796   1.29053
 Alpha virt. eigenvalues --    1.31001   1.33502   1.34224   1.36815   1.41030
 Alpha virt. eigenvalues --    1.42128   1.45000   1.46676   1.49096   1.53437
 Alpha virt. eigenvalues --    1.56945   1.60187   1.61404   1.64400   1.68266
 Alpha virt. eigenvalues --    1.69021   1.69608   1.72213   1.73324   1.75370
 Alpha virt. eigenvalues --    1.77914   1.79692   1.82385   1.84990   1.87351
 Alpha virt. eigenvalues --    1.88413   1.89536   1.92653   1.94049   1.95705
 Alpha virt. eigenvalues --    1.97717   1.98659   1.99435   2.02893   2.05858
 Alpha virt. eigenvalues --    2.07269   2.09489   2.10519   2.13703   2.16125
 Alpha virt. eigenvalues --    2.17757   2.19664   2.22495   2.24105   2.25492
 Alpha virt. eigenvalues --    2.30589   2.32482   2.34122   2.37116   2.42651
 Alpha virt. eigenvalues --    2.43487   2.47376   2.50485   2.51770   2.53491
 Alpha virt. eigenvalues --    2.54469   2.55687   2.57701   2.58906   2.60724
 Alpha virt. eigenvalues --    2.63935   2.66666   2.72162   2.74113   2.78638
 Alpha virt. eigenvalues --    2.83829   2.85972   2.90948   2.91737   2.94060
 Alpha virt. eigenvalues --    2.98229   3.03046   3.12554   3.13989   3.73314
 Alpha virt. eigenvalues --    3.84007   3.89107   3.94411   4.06804   4.12535
 Alpha virt. eigenvalues --    4.31380   4.40289   4.50636   4.60663   4.65964
 Alpha virt. eigenvalues --    4.88468
          Condensed to atoms (all electrons):
              1          2          3          4          5          6
     1  C    4.795110   0.403144   0.180350  -0.010734  -0.038728   0.001836
     2  H    0.403144   0.599135  -0.041524  -0.006651   0.005793  -0.000193
     3  O    0.180350  -0.041524   8.371964   0.237125   0.008988  -0.000228
     4  H   -0.010734  -0.006651   0.237125   0.336996  -0.001260   0.000061
     5  C   -0.038728   0.005793   0.008988  -0.001260   5.015863   0.379355
     6  H    0.001836  -0.000193  -0.000228   0.000061   0.379355   0.554834
     7  O    0.220391  -0.056940  -0.053328   0.003122   0.156222  -0.029788
     8  C    0.308669  -0.053842  -0.049290   0.006557  -0.018083   0.000168
     9  H   -0.051028  -0.002709   0.005995  -0.000373   0.000635  -0.000022
    10  O   -0.039499  -0.002165   0.001449  -0.000092   0.003561   0.001027
    11  H   -0.003213   0.007235   0.000081  -0.000025   0.000025  -0.000041
    12  C   -0.033657   0.005746   0.006695  -0.000498  -0.039568  -0.007163
    13  H    0.002963  -0.000238  -0.000076   0.000012  -0.006000   0.006112
    14  O    0.001910  -0.000075  -0.000143   0.000010   0.003892   0.000039
    15  H   -0.000316  -0.000019   0.000848  -0.000016   0.000128   0.000022
    16  C    0.004121  -0.000145  -0.036607   0.001243   0.309518  -0.052587
    17  H   -0.001813   0.000550   0.008406   0.000543  -0.033584   0.005044
    18  O   -0.000300   0.000006   0.000260  -0.000018  -0.042334   0.002532
    19  H   -0.000060   0.000001  -0.000010   0.000000   0.007081  -0.000155
    20  C   -0.000314  -0.000182  -0.000408   0.000003   0.334679  -0.051763
    21  H    0.000959   0.000026   0.000900   0.001058  -0.048248   0.006752
    22  H    0.000009  -0.000010   0.000013  -0.000003  -0.036772  -0.005510
    23  O   -0.000001   0.000001   0.000001   0.000002  -0.038620   0.006863
    24  H    0.000029   0.000000  -0.000004   0.000000  -0.008872  -0.000306
              7          8          9         10         11         12
     1  C    0.220391   0.308669  -0.051028  -0.039499  -0.003213  -0.033657
     2  H   -0.056940  -0.053842  -0.002709  -0.002165   0.007235   0.005746
     3  O   -0.053328  -0.049290   0.005995   0.001449   0.000081   0.006695
     4  H    0.003122   0.006557  -0.000373  -0.000092  -0.000025  -0.000498
     5  C    0.156222  -0.018083   0.000635   0.003561   0.000025  -0.039568
     6  H   -0.029788   0.000168  -0.000022   0.001027  -0.000041  -0.007163
     7  O    8.416432  -0.048754   0.003943  -0.002375   0.000543  -0.011510
     8  C   -0.048754   5.052483   0.365810   0.217172  -0.029112   0.269763
     9  H    0.003943   0.365810   0.599910  -0.031336  -0.002469  -0.049314
    10  O   -0.002375   0.217172  -0.031336   8.289165   0.243718  -0.043537
    11  H    0.000543  -0.029112  -0.002469   0.243718   0.360928   0.006709
    12  C   -0.011510   0.269763  -0.049314  -0.043537   0.006709   4.986635
    13  H    0.000170  -0.042428   0.002256   0.002939  -0.000087   0.385420
    14  O    0.000028  -0.034127   0.000907   0.001421  -0.000139   0.216565
    15  H    0.000044  -0.006051   0.003870  -0.000018   0.000009  -0.028251
    16  C   -0.033097  -0.052720   0.003686   0.000856  -0.000372   0.344130
    17  H    0.000821  -0.003914  -0.000126   0.000008   0.000017  -0.034193
    18  O    0.001423   0.004519  -0.000067  -0.000018   0.000002  -0.033197
    19  H   -0.000098   0.000950  -0.000041  -0.000011   0.000001  -0.014076
    20  C   -0.034243  -0.000015   0.000019   0.000026  -0.000003   0.004597
    21  H    0.004474   0.000021  -0.000003   0.000000   0.000000   0.000165
    22  H    0.002024   0.000013  -0.000001  -0.000001   0.000000  -0.000145
    23  O    0.001531   0.000001   0.000000   0.000000   0.000000  -0.000023
    24  H   -0.000008  -0.000027   0.000000   0.000000   0.000000   0.000306
             13         14         15         16         17         18
     1  C    0.002963   0.001910  -0.000316   0.004121  -0.001813  -0.000300
     2  H   -0.000238  -0.000075  -0.000019  -0.000145   0.000550   0.000006
     3  O   -0.000076  -0.000143   0.000848  -0.036607   0.008406   0.000260
     4  H    0.000012   0.000010  -0.000016   0.001243   0.000543  -0.000018
     5  C   -0.006000   0.003892   0.000128   0.309518  -0.033584  -0.042334
     6  H    0.006112   0.000039   0.000022  -0.052587   0.005044   0.002532
     7  O    0.000170   0.000028   0.000044  -0.033097   0.000821   0.001423
     8  C   -0.042428  -0.034127  -0.006051  -0.052720  -0.003914   0.004519
     9  H    0.002256   0.000907   0.003870   0.003686  -0.000126  -0.000067
    10  O    0.002939   0.001421  -0.000018   0.000856   0.000008  -0.000018
    11  H   -0.000087  -0.000139   0.000009  -0.000372   0.000017   0.000002
    12  C    0.385420   0.216565  -0.028251   0.344130  -0.034193  -0.033197
    13  H    0.510538  -0.037153   0.006332  -0.040232   0.004667  -0.000226
    14  O   -0.037153   8.302749   0.241682  -0.049956  -0.002228  -0.008332
    15  H    0.006332   0.241682   0.366942  -0.003079   0.004268  -0.000053
    16  C   -0.040232  -0.049956  -0.003079   5.074023   0.363223   0.174678
    17  H    0.004667  -0.002228   0.004268   0.363223   0.541419  -0.036929
    18  O   -0.000226  -0.008332  -0.000053   0.174678  -0.036929   8.382627
    19  H   -0.000735   0.026223  -0.000682  -0.029708  -0.000301   0.240968
    20  C   -0.000135  -0.000067  -0.000003  -0.032736  -0.008206   0.001539
    21  H   -0.000002   0.000000  -0.000001  -0.015070   0.005034   0.000296
    22  H    0.000002   0.000000   0.000000   0.005541  -0.000101  -0.000130
    23  O   -0.000020   0.000000   0.000000  -0.001035   0.000113  -0.010233
    24  H    0.000023   0.000004  -0.000001   0.000251   0.000195   0.027622
             19         20         21         22         23         24
     1  C   -0.000060  -0.000314   0.000959   0.000009  -0.000001   0.000029
     2  H    0.000001  -0.000182   0.000026  -0.000010   0.000001   0.000000
     3  O   -0.000010  -0.000408   0.000900   0.000013   0.000001  -0.000004
     4  H    0.000000   0.000003   0.001058  -0.000003   0.000002   0.000000
     5  C    0.007081   0.334679  -0.048248  -0.036772  -0.038620  -0.008872
     6  H   -0.000155  -0.051763   0.006752  -0.005510   0.006863  -0.000306
     7  O   -0.000098  -0.034243   0.004474   0.002024   0.001531  -0.000008
     8  C    0.000950  -0.000015   0.000021   0.000013   0.000001  -0.000027
     9  H   -0.000041   0.000019  -0.000003  -0.000001   0.000000   0.000000
    10  O   -0.000011   0.000026   0.000000  -0.000001   0.000000   0.000000
    11  H    0.000001  -0.000003   0.000000   0.000000   0.000000   0.000000
    12  C   -0.014076   0.004597   0.000165  -0.000145  -0.000023   0.000306
    13  H   -0.000735  -0.000135  -0.000002   0.000002  -0.000020   0.000023
    14  O    0.026223  -0.000067   0.000000   0.000000   0.000000   0.000004
    15  H   -0.000682  -0.000003  -0.000001   0.000000   0.000000  -0.000001
    16  C   -0.029708  -0.032736  -0.015070   0.005541  -0.001035   0.000251
    17  H   -0.000301  -0.008206   0.005034  -0.000101   0.000113   0.000195
    18  O    0.240968   0.001539   0.000296  -0.000130  -0.010233   0.027622
    19  H    0.338181  -0.000326  -0.000038   0.000015   0.000397  -0.000421
    20  C   -0.000326   4.857302   0.354720   0.386937   0.248491  -0.030126
    21  H   -0.000038   0.354720   0.660287  -0.044997  -0.037369  -0.002505
    22  H    0.000015   0.386937  -0.044997   0.553049  -0.037676   0.005342
    23  O    0.000397   0.248491  -0.037369  -0.037676   8.290088   0.245525
    24  H   -0.000421  -0.030126  -0.002505   0.005342   0.245525   0.317605
 Mulliken atomic charges:
              1
     1  C    0.260172
     2  H    0.143056
     3  O   -0.641457
     4  H    0.432935
     5  C    0.086330
     6  H    0.183112
     7  O   -0.541029
     8  C    0.112238
     9  H    0.150456
    10  O   -0.642291
    11  H    0.416192
    12  C    0.068402
    13  H    0.205895
    14  O   -0.663210
    15  H    0.414344
    16  C    0.066075
    17  H    0.187089
    18  O   -0.704635
    19  H    0.432845
    20  C   -0.029785
    21  H    0.113539
    22  H    0.172399
    23  O   -0.668038
    24  H    0.445368
 Sum of Mulliken atomic charges =   0.00000
 Mulliken charges with hydrogens summed into heavy atoms:
              1
     1  C    0.403227
     3  O   -0.208522
     5  C    0.269442
     7  O   -0.541029
     8  C    0.262695
    10  O   -0.226099
    12  C    0.274297
    14  O   -0.248866
    16  C    0.253163
    18  O   -0.271790
    20  C    0.256152
    23  O   -0.222670
 Sum of Mulliken charges with hydrogens summed into heavy atoms =   0.00000
 Electronic spatial extent (au):  <R**2>=         559755.2913
 Charge=              0.0000 electrons
 Dipole moment (field-independent basis, Debye):
    X=             -4.6581    Y=              1.2062    Z=             -0.5771  Tot=              4.8462
 Quadrupole moment (field-independent basis, Debye-Ang):
   XX=           -281.9921   YY=            -73.6960   ZZ=            -33.8661
   XY=             30.2331   XZ=            134.0500   YZ=            -44.1432
 Traceless Quadrupole moment (field-independent basis, Debye-Ang):
   XX=           -152.1407   YY=             56.1554   ZZ=             95.9853
   XY=             30.2331   XZ=            134.0500   YZ=            -44.1432
 Octapole moment (field-independent basis, Debye-Ang**2):
  XXX=         -12056.3974  YYY=            241.7299  ZZZ=           5296.5628  XYY=          -1690.2966
  XXY=            807.2510  XXZ=           8717.3347  XZZ=          -5418.8138  YZZ=           1693.7903
  YYZ=           2468.7541  XYZ=          -1096.4741
 Hexadecapole moment (field-independent basis, Debye-Ang**3):
 XXXX=        -441833.0682 YYYY=          -1090.4023 ZZZZ=        -395734.9564 XXXY=          22230.4565
 XXXZ=         381283.2070 YYYX=           5362.8704 YYYZ=          -8199.0770 ZZZX=         267164.5955
 ZZZY=         -67031.4422 XXYY=         -39031.1321 XXZZ=        -306114.0599 YYZZ=         -83034.4745
 XXYZ=         -28951.7572 YYXZ=          56561.3253 ZZXY=          41509.6921
 N-N= 8.473218761128D+02 E-N=-3.305581821201D+03  KE= 6.815546087747D+02
 1\1\GINC-RR29\FOpt\RM062X\6-31G(d)\C6H12O6\HMAYES\12-Jun-2012\0\\# opt
 (modredundant) m062x/6-31G(d) nosymm\\Starting Geometry for Conformati
 onal Analysis\\0,1\C,21.0869392122,-1.207848893,-32.7068759669\H,20.24
 39684495,-1.5939494122,-32.1110836173\O,20.7956858108,0.0969664584,-33
 .1008328051\H,20.6087221086,0.6084867437,-32.2992369205\C,23.504870512
 9,-1.0616993026,-32.3811104704\H,24.1249409659,-1.9643664905,-32.37230
 75469\O,22.184061124,-1.4070150813,-31.8228791703\C,21.2971458212,-2.1
 508502012,-33.8980254271\H,20.4776055821,-2.0216259386,-34.6228472308\
 O,21.3948077894,-3.479195984,-33.4551034349\H,20.6391760783,-3.6793269
 355,-32.8840159413\C,22.6317940376,-1.7819300989,-34.5673727559\H,23.3
 006833968,-2.6452147389,-34.5151881384\O,22.5219469494,-1.4554358352,-
 35.9449809264\H,21.8593464065,-0.7521443314,-36.0270873855\C,23.269951
 6933,-0.6193910803,-33.8179492829\H,22.6718807122,0.2875213133,-33.875
 7250832\O,24.5553326666,-0.3654169877,-34.3838216942\H,24.4411785952,-
 0.4120446566,-35.3473165683\C,24.1331230838,0.0158844561,-31.509550936
 1\H,23.5368776669,0.9391623324,-31.614360287\H,24.076048861,-0.2977865
 044,-30.4631983233\O,25.4888138414,0.215223815,-31.8188584616\H,25.553
 4676344,0.3068443533,-32.7838836258\\Version=EM64L-G09RevB.01\HF=-686.
 8626189\RMSD=7.603e-09\RMSF=8.252e-03\Dipole=-1.8326354,0.4745559,-0.2
 270645\Quadrupole=-113.1128979,41.7501792,71.3627187,22.4775526,99.662
 9179,-32.8193808\PG=C01 [X(C6H12O6)]\\@


 The hours that make us happy make us wise.
                         -- John Masefield
 Job cpu time:  0 days  1 hours 14 minutes  8.6 seconds.
 File lengths (MBytes):  RWF=     27 Int=      0 D2E=      0 Chk=      4 Scr=      1
 Normal termination of Gaussian 09 at Tue Jun 12 20:20:00 2012.
