 Entering Gaussian System, Link 0=g09
 Initial command:
 /opt/gaussian//g09/l1.exe /scratch/g09/Gau-17898.inp -scrdir=/scratch/g09/
 Entering Link 1 = /opt/gaussian//g09/l1.exe PID=     17899.
  
 Copyright (c) 1988,1990,1992,1993,1995,1998,2003,2009,2010,
            Gaussian, Inc.  All Rights Reserved.
  
 This is part of the Gaussian(R) 09 program.  It is based on
 the Gaussian(R) 03 system (copyright 2003, Gaussian, Inc.),
 the Gaussian(R) 98 system (copyright 1998, Gaussian, Inc.),
 the Gaussian(R) 94 system (copyright 1995, Gaussian, Inc.),
 the Gaussian 92(TM) system (copyright 1992, Gaussian, Inc.),
 the Gaussian 90(TM) system (copyright 1990, Gaussian, Inc.),
 the Gaussian 88(TM) system (copyright 1988, Gaussian, Inc.),
 the Gaussian 86(TM) system (copyright 1986, Carnegie Mellon
 University), and the Gaussian 82(TM) system (copyright 1983,
 Carnegie Mellon University). Gaussian is a federally registered
 trademark of Gaussian, Inc.
  
 This software contains proprietary and confidential information,
 including trade secrets, belonging to Gaussian, Inc.
  
 This software is provided under written license and may be
 used, copied, transmitted, or stored only in accord with that
 written license.
  
 The following legend is applicable only to US Government
 contracts under FAR:
  
                    RESTRICTED RIGHTS LEGEND
  
 Use, reproduction and disclosure by the US Government is
 subject to restrictions as set forth in subparagraphs (a)
 and (c) of the Commercial Computer Software - Restricted
 Rights clause in FAR 52.227-19.
  
 Gaussian, Inc.
 340 Quinnipiac St., Bldg. 40, Wallingford CT 06492
  
  
 ---------------------------------------------------------------
 Warning -- This program may not be used in any manner that
 competes with the business of Gaussian, Inc. or will provide
 assistance to any competitor of Gaussian, Inc.  The licensee
 of this program is prohibited from giving any competitor of
 Gaussian, Inc. access to this program.  By using this program,
 the user acknowledges that Gaussian, Inc. is engaged in the
 business of creating and licensing software in the field of
 computational chemistry and represents and warrants to the
 licensee that it is not a competitor of Gaussian, Inc. and that
 it will not use this program in any manner prohibited above.
 ---------------------------------------------------------------
  

 Cite this work as:
 Gaussian 09, Revision B.01,
 M. J. Frisch, G. W. Trucks, H. B. Schlegel, G. E. Scuseria, 
 M. A. Robb, J. R. Cheeseman, G. Scalmani, V. Barone, B. Mennucci, 
 G. A. Petersson, H. Nakatsuji, M. Caricato, X. Li, H. P. Hratchian, 
 A. F. Izmaylov, J. Bloino, G. Zheng, J. L. Sonnenberg, M. Hada, 
 M. Ehara, K. Toyota, R. Fukuda, J. Hasegawa, M. Ishida, T. Nakajima, 
 Y. Honda, O. Kitao, H. Nakai, T. Vreven, J. A. Montgomery, Jr., 
 J. E. Peralta, F. Ogliaro, M. Bearpark, J. J. Heyd, E. Brothers, 
 K. N. Kudin, V. N. Staroverov, T. Keith, R. Kobayashi, J. Normand, 
 K. Raghavachari, A. Rendell, J. C. Burant, S. S. Iyengar, J. Tomasi, 
 M. Cossi, N. Rega, J. M. Millam, M. Klene, J. E. Knox, J. B. Cross, 
 V. Bakken, C. Adamo, J. Jaramillo, R. Gomperts, R. E. Stratmann, 
 O. Yazyev, A. J. Austin, R. Cammi, C. Pomelli, J. W. Ochterski, 
 R. L. Martin, K. Morokuma, V. G. Zakrzewski, G. A. Voth, 
 P. Salvador, J. J. Dannenberg, S. Dapprich, A. D. Daniels, 
 O. Farkas, J. B. Foresman, J. V. Ortiz, J. Cioslowski, 
 and D. J. Fox, Gaussian, Inc., Wallingford CT, 2010.
 
 ******************************************
 Gaussian 09:  EM64L-G09RevB.01 12-Aug-2010
                21-Sep-2011 
 ******************************************
 %chk=gaussian/glucose/b-glucose_gasm062x.chk
 %mem=31GB
 %nproc=8
 Will use up to    8 processors via shared memory.
 Default route:  MaxDisk=210GB
 ----------------------------------------------------------------------
 # opt m062x/6-31+g(2df,p) nosymm scf=(xqc,conver=6,maxcycle=1000) geom
 =allcheck guess=read
 ----------------------------------------------------------------------
 1/14=-1,18=20,19=15,26=3,29=7,38=1/1,3;
 2/9=110,12=2,15=1,40=1/2;
 3/5=1,6=6,7=114,11=2,14=-4,16=1,25=1,30=1,71=1,74=-55,116=-2/1,2,3;
 4/5=1/1;
 5/5=2,6=6,7=1000,8=3,13=1,38=6/2,8;
 6/7=2,8=2,9=2,10=2,28=1/1;
 7/30=1/1,2,3,16;
 1/14=-1,18=20,19=15/3(2);
 2/9=110,15=1/2;
 99//99;
 2/9=110,15=1/2;
 3/5=1,6=6,7=114,11=2,14=-2,16=1,25=1,30=1,71=1,74=-55/1,2,3;
 4/5=5,16=3/1;
 5/5=2,6=6,7=1000,8=3,13=1,38=5/2,8;
 7/30=1/1,2,3,16;
 1/14=-1,18=20,19=15/3(-5);
 2/9=110,15=1/2;
 6/7=2,8=2,9=2,10=2,19=2,28=1/1;
 99/9=1/99;
 ----------------------------------------------------------------------
 b-glucose from d-glucoseSruct5+_d2f.log step -172.6337 where found low
 er energy
 ----------------------------------------------------------------------
 Redundant internal coordinates taken from checkpoint file:
 gaussian/glucose/b-glucose_gasm062x.chk
 Charge =  0 Multiplicity = 1
 C,0,0.0910350362,0.3875859897,0.2850266982
 C,0,-0.5054786914,1.7435398836,-0.0771831135
 C,0,0.0193527809,2.1782150499,-1.4330487552
 C,0,1.538721403,2.1585549459,-1.4425630067
 C,0,2.0309509653,0.7822135127,-1.0049848376
 C,0,3.540527038,0.7190738053,-0.8730097425
 O,0,-0.3325522722,0.0743571182,1.5655373026
 O,0,-1.909943313,1.6840923966,-0.1691986657
 O,0,-0.3886419548,3.4882255733,-1.7639593361
 O,0,2.0420827117,2.4193934305,-2.7327294254
 O,0,1.5009913835,0.4703269907,0.2756696033
 O,0,3.9657337012,-0.5634071214,-0.4655372496
 H,0,-0.233599441,-0.3748235928,-0.4431007243
 H,0,-0.1875087884,2.4661795043,0.6889833705
 H,0,-0.3421113151,1.4664492578,-2.1926585708
 H,0,1.9031557107,2.9094165914,-0.7236851732
 H,0,1.6987384456,0.0296101139,-1.7386641756
 H,0,-0.1645846255,-0.8567464607,1.7442545355
 H,0,-2.2622978223,1.4495331894,0.6961748785
 H,0,-1.3518972278,3.5132072426,-1.7695848851
 H,0,1.6116195201,3.2186383874,-3.0576652656
 H,0,3.500589222,-0.7737446014,0.3518067961
 H,0,3.9990639851,0.9246156814,-1.8418716618
 H,0,3.8672075481,1.4884871119,-0.158815596
 Recover connectivity data from disk.

 GradGradGradGradGradGradGradGradGradGradGradGradGradGradGradGradGradGrad
 Berny optimization.
 Initialization pass.
                           ----------------------------
                           !    Initial Parameters    !
                           ! (Angstroms and Degrees)  !
 --------------------------                            --------------------------
 ! Name  Definition              Value          Derivative Info.                !
 --------------------------------------------------------------------------------
 ! R1    R(1,2)                  1.525          estimate D2E/DX2                !
 ! R2    R(1,7)                  1.3846         estimate D2E/DX2                !
 ! R3    R(1,11)                 1.4124         estimate D2E/DX2                !
 ! R4    R(1,13)                 1.1031         estimate D2E/DX2                !
 ! R5    R(2,3)                  1.5175         estimate D2E/DX2                !
 ! R6    R(2,8)                  1.4087         estimate D2E/DX2                !
 ! R7    R(2,14)                 1.1001         estimate D2E/DX2                !
 ! R8    R(3,4)                  1.5195         estimate D2E/DX2                !
 ! R9    R(3,9)                  1.4114         estimate D2E/DX2                !
 ! R10   R(3,15)                 1.1019         estimate D2E/DX2                !
 ! R11   R(4,5)                  1.5258         estimate D2E/DX2                !
 ! R12   R(4,10)                 1.4092         estimate D2E/DX2                !
 ! R13   R(4,16)                 1.1015         estimate D2E/DX2                !
 ! R14   R(5,6)                  1.5166         estimate D2E/DX2                !
 ! R15   R(5,11)                 1.4206         estimate D2E/DX2                !
 ! R16   R(5,17)                 1.1023         estimate D2E/DX2                !
 ! R17   R(6,12)                 1.4112         estimate D2E/DX2                !
 ! R18   R(6,23)                 1.0914         estimate D2E/DX2                !
 ! R19   R(6,24)                 1.0994         estimate D2E/DX2                !
 ! R20   R(7,18)                 0.9629         estimate D2E/DX2                !
 ! R21   R(8,19)                 0.9633         estimate D2E/DX2                !
 ! R22   R(9,20)                 0.9636         estimate D2E/DX2                !
 ! R23   R(10,21)                0.9642         estimate D2E/DX2                !
 ! R24   R(12,22)                0.9637         estimate D2E/DX2                !
 ! A1    A(2,1,7)              107.5254         estimate D2E/DX2                !
 ! A2    A(2,1,11)             109.6829         estimate D2E/DX2                !
 ! A3    A(2,1,13)             110.0381         estimate D2E/DX2                !
 ! A4    A(7,1,11)             108.9513         estimate D2E/DX2                !
 ! A5    A(7,1,13)             111.3493         estimate D2E/DX2                !
 ! A6    A(11,1,13)            109.2625         estimate D2E/DX2                !
 ! A7    A(1,2,3)              109.3675         estimate D2E/DX2                !
 ! A8    A(1,2,8)              111.5901         estimate D2E/DX2                !
 ! A9    A(1,2,14)             107.793          estimate D2E/DX2                !
 ! A10   A(3,2,8)              107.3696         estimate D2E/DX2                !
 ! A11   A(3,2,14)             109.52           estimate D2E/DX2                !
 ! A12   A(8,2,14)             111.1836         estimate D2E/DX2                !
 ! A13   A(2,3,4)              110.3472         estimate D2E/DX2                !
 ! A14   A(2,3,9)              112.0473         estimate D2E/DX2                !
 ! A15   A(2,3,15)             108.5088         estimate D2E/DX2                !
 ! A16   A(4,3,9)              107.4323         estimate D2E/DX2                !
 ! A17   A(4,3,15)             108.38           estimate D2E/DX2                !
 ! A18   A(9,3,15)             110.0643         estimate D2E/DX2                !
 ! A19   A(3,4,5)              109.4173         estimate D2E/DX2                !
 ! A20   A(3,4,10)             111.1302         estimate D2E/DX2                !
 ! A21   A(3,4,16)             108.536          estimate D2E/DX2                !
 ! A22   A(5,4,10)             108.3177         estimate D2E/DX2                !
 ! A23   A(5,4,16)             108.7225         estimate D2E/DX2                !
 ! A24   A(10,4,16)            110.679          estimate D2E/DX2                !
 ! A25   A(4,5,6)              112.5573         estimate D2E/DX2                !
 ! A26   A(4,5,11)             109.6465         estimate D2E/DX2                !
 ! A27   A(4,5,17)             109.1334         estimate D2E/DX2                !
 ! A28   A(6,5,11)             106.4824         estimate D2E/DX2                !
 ! A29   A(6,5,17)             109.2366         estimate D2E/DX2                !
 ! A30   A(11,5,17)            109.7359         estimate D2E/DX2                !
 ! A31   A(5,6,12)             111.2755         estimate D2E/DX2                !
 ! A32   A(5,6,23)             109.456          estimate D2E/DX2                !
 ! A33   A(5,6,24)             108.8527         estimate D2E/DX2                !
 ! A34   A(12,6,23)            107.5098         estimate D2E/DX2                !
 ! A35   A(12,6,24)            111.0316         estimate D2E/DX2                !
 ! A36   A(23,6,24)            108.6642         estimate D2E/DX2                !
 ! A37   A(1,7,18)             109.6966         estimate D2E/DX2                !
 ! A38   A(2,8,19)             108.4364         estimate D2E/DX2                !
 ! A39   A(3,9,20)             108.3245         estimate D2E/DX2                !
 ! A40   A(4,10,21)            107.6072         estimate D2E/DX2                !
 ! A41   A(1,11,5)             113.0309         estimate D2E/DX2                !
 ! A42   A(6,12,22)            107.3264         estimate D2E/DX2                !
 ! D1    D(7,1,2,3)            175.6561         estimate D2E/DX2                !
 ! D2    D(7,1,2,8)            -65.6961         estimate D2E/DX2                !
 ! D3    D(7,1,2,14)            56.6578         estimate D2E/DX2                !
 ! D4    D(11,1,2,3)            57.3183         estimate D2E/DX2                !
 ! D5    D(11,1,2,8)           175.9661         estimate D2E/DX2                !
 ! D6    D(11,1,2,14)          -61.68           estimate D2E/DX2                !
 ! D7    D(13,1,2,3)           -62.9077         estimate D2E/DX2                !
 ! D8    D(13,1,2,8)            55.7401         estimate D2E/DX2                !
 ! D9    D(13,1,2,14)          178.094          estimate D2E/DX2                !
 ! D10   D(2,1,7,18)           165.8755         estimate D2E/DX2                !
 ! D11   D(11,1,7,18)          -75.3159         estimate D2E/DX2                !
 ! D12   D(13,1,7,18)           45.2628         estimate D2E/DX2                !
 ! D13   D(2,1,11,5)           -62.8682         estimate D2E/DX2                !
 ! D14   D(7,1,11,5)           179.6817         estimate D2E/DX2                !
 ! D15   D(13,1,11,5)           57.8287         estimate D2E/DX2                !
 ! D16   D(1,2,3,4)            -54.2782         estimate D2E/DX2                !
 ! D17   D(1,2,3,9)           -173.9422         estimate D2E/DX2                !
 ! D18   D(1,2,3,15)            64.3284         estimate D2E/DX2                !
 ! D19   D(8,2,3,4)           -175.5183         estimate D2E/DX2                !
 ! D20   D(8,2,3,9)             64.8177         estimate D2E/DX2                !
 ! D21   D(8,2,3,15)           -56.9117         estimate D2E/DX2                !
 ! D22   D(14,2,3,4)            63.6443         estimate D2E/DX2                !
 ! D23   D(14,2,3,9)           -56.0197         estimate D2E/DX2                !
 ! D24   D(14,2,3,15)         -177.749          estimate D2E/DX2                !
 ! D25   D(1,2,8,19)            62.8046         estimate D2E/DX2                !
 ! D26   D(3,2,8,19)          -177.3625         estimate D2E/DX2                !
 ! D27   D(14,2,8,19)          -57.5809         estimate D2E/DX2                !
 ! D28   D(2,3,4,5)             54.0894         estimate D2E/DX2                !
 ! D29   D(2,3,4,10)           173.6597         estimate D2E/DX2                !
 ! D30   D(2,3,4,16)           -64.4103         estimate D2E/DX2                !
 ! D31   D(9,3,4,5)            176.5061         estimate D2E/DX2                !
 ! D32   D(9,3,4,10)           -63.9237         estimate D2E/DX2                !
 ! D33   D(9,3,4,16)            58.0064         estimate D2E/DX2                !
 ! D34   D(15,3,4,5)           -64.5959         estimate D2E/DX2                !
 ! D35   D(15,3,4,10)           54.9744         estimate D2E/DX2                !
 ! D36   D(15,3,4,16)          176.9044         estimate D2E/DX2                !
 ! D37   D(2,3,9,20)           -59.1565         estimate D2E/DX2                !
 ! D38   D(4,3,9,20)           179.4867         estimate D2E/DX2                !
 ! D39   D(15,3,9,20)           61.6769         estimate D2E/DX2                !
 ! D40   D(3,4,5,6)           -175.0327         estimate D2E/DX2                !
 ! D41   D(3,4,5,11)           -56.7054         estimate D2E/DX2                !
 ! D42   D(3,4,5,17)            63.5185         estimate D2E/DX2                !
 ! D43   D(10,4,5,6)            63.6801         estimate D2E/DX2                !
 ! D44   D(10,4,5,11)         -177.9925         estimate D2E/DX2                !
 ! D45   D(10,4,5,17)          -57.7687         estimate D2E/DX2                !
 ! D46   D(16,4,5,6)           -56.6491         estimate D2E/DX2                !
 ! D47   D(16,4,5,11)           61.6783         estimate D2E/DX2                !
 ! D48   D(16,4,5,17)         -178.0978         estimate D2E/DX2                !
 ! D49   D(3,4,10,21)           50.6214         estimate D2E/DX2                !
 ! D50   D(5,4,10,21)          170.8452         estimate D2E/DX2                !
 ! D51   D(16,4,10,21)         -70.0531         estimate D2E/DX2                !
 ! D52   D(4,5,6,12)           179.906          estimate D2E/DX2                !
 ! D53   D(4,5,6,23)           -61.4097         estimate D2E/DX2                !
 ! D54   D(4,5,6,24)            57.2276         estimate D2E/DX2                !
 ! D55   D(11,5,6,12)           59.7355         estimate D2E/DX2                !
 ! D56   D(11,5,6,23)          178.4198         estimate D2E/DX2                !
 ! D57   D(11,5,6,24)          -62.9429         estimate D2E/DX2                !
 ! D58   D(17,5,6,12)          -58.704          estimate D2E/DX2                !
 ! D59   D(17,5,6,23)           59.9803         estimate D2E/DX2                !
 ! D60   D(17,5,6,24)          178.6176         estimate D2E/DX2                !
 ! D61   D(4,5,11,1)            62.602          estimate D2E/DX2                !
 ! D62   D(6,5,11,1)          -175.3653         estimate D2E/DX2                !
 ! D63   D(17,5,11,1)          -57.2543         estimate D2E/DX2                !
 ! D64   D(5,6,12,22)          -55.3632         estimate D2E/DX2                !
 ! D65   D(23,6,12,22)        -175.2085         estimate D2E/DX2                !
 ! D66   D(24,6,12,22)          66.0522         estimate D2E/DX2                !
 --------------------------------------------------------------------------------
 Trust Radius=3.00D-01 FncErr=1.00D-07 GrdErr=1.00D-06
 Number of steps in this run=    142 maximum allowed number of steps=    144.
 GradGradGradGradGradGradGradGradGradGradGradGradGradGradGradGradGradGrad

                          Input orientation:                          
 ---------------------------------------------------------------------
 Center     Atomic      Atomic             Coordinates (Angstroms)
 Number     Number       Type             X           Y           Z
 ---------------------------------------------------------------------
      1          6           0        0.091035    0.387586    0.285027
      2          6           0       -0.505479    1.743540   -0.077183
      3          6           0        0.019353    2.178215   -1.433049
      4          6           0        1.538721    2.158555   -1.442563
      5          6           0        2.030951    0.782214   -1.004985
      6          6           0        3.540527    0.719074   -0.873010
      7          8           0       -0.332552    0.074357    1.565537
      8          8           0       -1.909943    1.684092   -0.169199
      9          8           0       -0.388642    3.488226   -1.763959
     10          8           0        2.042083    2.419393   -2.732729
     11          8           0        1.500991    0.470327    0.275670
     12          8           0        3.965734   -0.563407   -0.465537
     13          1           0       -0.233599   -0.374824   -0.443101
     14          1           0       -0.187509    2.466180    0.688983
     15          1           0       -0.342111    1.466449   -2.192659
     16          1           0        1.903156    2.909417   -0.723685
     17          1           0        1.698738    0.029610   -1.738664
     18          1           0       -0.164585   -0.856746    1.744255
     19          1           0       -2.262298    1.449533    0.696175
     20          1           0       -1.351897    3.513207   -1.769585
     21          1           0        1.611620    3.218638   -3.057665
     22          1           0        3.500589   -0.773745    0.351807
     23          1           0        3.999064    0.924616   -1.841872
     24          1           0        3.867208    1.488487   -0.158816
 ---------------------------------------------------------------------
                    Distance matrix (angstroms):
                    1          2          3          4          5
     1  C    0.000000
     2  C    1.525003   0.000000
     3  C    2.482594   1.517485   0.000000
     4  C    2.866477   2.493041   1.519526   0.000000
     5  C    2.362866   2.866782   2.485676   1.525805   0.000000
     6  C    3.653755   4.248886   3.852454   2.530558   1.516649
     7  O    1.384647   2.348320   3.679888   4.110257   3.562975
     8  O    2.427172   1.408731   2.358741   3.706732   4.128265
     9  O    3.747319   2.429566   1.411414   2.363482   3.708500
    10  O    4.128157   3.741493   2.416355   1.409233   2.380249
    11  O    1.412413   2.402394   2.834052   2.409120   1.420636
    12  O    4.059683   5.046243   4.901683   3.775453   2.417661
    13  H    1.103098   2.166859   2.749907   3.249316   2.604350
    14  H    2.135724   1.100147   2.151450   2.760071   3.259882
    15  H    2.736875   2.139791   1.101941   2.139903   2.740469
    16  H    3.265105   2.752954   2.141627   1.101540   2.149524
    17  H    2.609249   3.249100   2.744128   2.155386   1.102299
    18  H    1.934696   3.193013   4.397736   4.706283   3.881351
    19  H    2.614374   1.941890   3.204762   4.418672   4.665967
    20  H    4.009113   2.590824   1.943139   3.209003   4.414363
    21  H    4.636877   3.942245   2.501434   1.933299   3.213332
    22  H    3.602528   4.750719   4.900896   3.958165   2.534112
    23  H    4.481605   4.906696   4.192463   2.781248   2.143391
    24  H    3.958340   4.380879   4.111615   2.742051   2.141650
                    6          7          8          9         10
     6  C    0.000000
     7  O    4.622003   0.000000
     8  O    5.579806   2.844067   0.000000
     9  O    4.888800   4.768982   2.848248   0.000000
    10  O    2.931720   5.441800   4.767690   2.826542   0.000000
    11  O    2.353942   2.276496   3.647686   4.103476   3.625204
    12  O    1.411238   4.796589   6.297829   6.087874   4.211614
    13  H    3.952906   2.060627   2.669136   4.085567   4.269517
    14  H    4.403459   2.551509   2.077238   2.664950   4.084285
    15  H    4.168324   4.007749   2.569018   2.067251   2.623768
    16  H    2.738774   4.275101   4.043340   2.582543   2.072603
    17  H    2.148698   3.878903   4.268854   4.039779   2.610961
    18  H    4.802201   0.962864   3.628146   5.588967   5.970415
    19  H    6.055468   2.524048   0.963350   3.703932   5.587997
    20  H    5.704984   4.897734   2.493654   0.963596   3.693667
    21  H    3.839431   5.919486   4.806191   2.397373   0.964196
    22  H    1.931393   4.109184   5.965423   6.145484   4.673086
    23  H    1.091420   5.576403   6.187973   5.082335   2.618733
    24  H    1.099450   4.755117   5.780471   4.968671   3.289787
                   11         12         13         14         15
    11  O    0.000000
    12  O    2.773617   0.000000
    13  H    2.059057   4.203625   0.000000
    14  H    2.646751   5.268846   3.058601   0.000000
    15  H    3.237581   5.065648   2.542246   3.054050   0.000000
    16  H    2.666384   4.047391   3.928191   2.561829   3.046516
    17  H    2.071443   2.666794   2.361352   3.922789   2.536865
    18  H    2.586892   4.693480   2.240878   3.486540   4.574717
    19  H    3.911268   6.647547   2.956661   2.310492   3.468827
    20  H    4.645553   6.826165   4.257574   2.914897   2.321180
    21  H    4.321640   5.154110   4.811834   4.223794   2.763235
    22  H    2.356248   0.963666   3.838643   4.920657   5.124365
    23  H    3.306165   2.027220   4.643333   5.129234   4.388899
    24  H    2.612356   2.077030   4.513243   4.256215   4.674973
                   16         17         18         19         20
    16  H    0.000000
    17  H    3.060270   0.000000
    18  H    4.954822   4.048249   0.000000
    19  H    4.636622   4.861526   3.289042   0.000000
    20  H    3.471864   4.630635   5.731778   3.341789   0.000000
    21  H    2.372356   3.452138   6.543859   5.676996   3.244742
    22  H    4.156219   2.874389   3.921645   6.186471   6.813581
    23  H    3.095579   2.470462   5.776636   6.776568   5.944646
    24  H    2.489100   3.053932   5.037573   6.188971   5.825215
                   21         22         23         24
    21  H    0.000000
    22  H    5.579590   0.000000
    23  H    3.527121   2.818711   0.000000
    24  H    4.060102   2.347943   1.779892   0.000000
 Symmetry turned off by external request.
 Stoichiometry    C6H12O6
 Framework group  C1[X(C6H12O6)]
 Deg. of freedom    66
 Full point group                 C1      NOp   1
 Rotational constants (GHZ):      1.1815522      0.7965582      0.4965777
 Standard basis: 6-31+G(2df,p) (6D, 7F)
 Integral buffers will be    131072 words long.
 Raffenetti 2 integral format.
 Two-electron integral symmetry is turned off.
   444 basis functions,   660 primitive gaussians,   480 cartesian basis functions
    48 alpha electrons       48 beta electrons
       nuclear repulsion energy       828.6114675693 Hartrees.
 NAtoms=   24 NActive=   24 NUniq=   24 SFac= 1.00D+00 NAtFMM=   50 NAOKFM=F Big=F
 One-electron integrals computed using PRISM.
 NBasis=   444 RedAO= T  NBF=   444
 NBsUse=   444 1.00D-06 NBFU=   444
 Initial guess read from the checkpoint file:  gaussian/glucose/b-glucose_gasm062x.chk
 B after Tr=     0.000000    0.000000    0.000000
         Rot=    1.000000    0.000000    0.000000    0.000000 Ang=   0.00 deg.
 Requested convergence on RMS density matrix=1.00D-06 within 128 cycles.
 Requested convergence on MAX density matrix=1.00D-04.
 Requested convergence on             energy=1.00D-04.
 No special actions if energy rises.
 SCF Done:  E(RM062X) =  -687.008030059     A.U. after    7 cycles
             Convg  =    0.2907D-06             -V/T =  2.0056
 QCSCF skips out because SCF is already converged.

 **********************************************************************

            Population analysis using the SCF density.

 **********************************************************************

 Alpha  occ. eigenvalues --  -19.67100 -19.66471 -19.65924 -19.65447 -19.64706
 Alpha  occ. eigenvalues --  -19.63392 -10.66548 -10.61200 -10.61115 -10.60944
 Alpha  occ. eigenvalues --  -10.60888 -10.59289  -1.22700  -1.18326  -1.17285
 Alpha  occ. eigenvalues --   -1.15876  -1.15010  -1.14089  -0.90107  -0.88243
 Alpha  occ. eigenvalues --   -0.79154  -0.74631  -0.71661  -0.68947  -0.65768
 Alpha  occ. eigenvalues --   -0.62638  -0.61850  -0.60563  -0.58178  -0.57558
 Alpha  occ. eigenvalues --   -0.54924  -0.53957  -0.52266  -0.50962  -0.50094
 Alpha  occ. eigenvalues --   -0.49289  -0.46878  -0.45055  -0.44967  -0.43082
 Alpha  occ. eigenvalues --   -0.42703  -0.41519  -0.39235  -0.38300  -0.37022
 Alpha  occ. eigenvalues --   -0.35887  -0.34889  -0.34438
 Alpha virt. eigenvalues --    0.00048   0.01450   0.02010   0.02785   0.03903
 Alpha virt. eigenvalues --    0.04930   0.05356   0.06031   0.06741   0.07881
 Alpha virt. eigenvalues --    0.08727   0.09330   0.10061   0.10497   0.11164
 Alpha virt. eigenvalues --    0.11658   0.12609   0.13373   0.14828   0.15325
 Alpha virt. eigenvalues --    0.15661   0.16098   0.16645   0.17951   0.19114
 Alpha virt. eigenvalues --    0.19741   0.20583   0.21504   0.22262   0.22558
 Alpha virt. eigenvalues --    0.23044   0.23636   0.24215   0.24604   0.24826
 Alpha virt. eigenvalues --    0.24927   0.25212   0.26771   0.27240   0.27595
 Alpha virt. eigenvalues --    0.28456   0.28638   0.29250   0.29696   0.30378
 Alpha virt. eigenvalues --    0.31239   0.31724   0.31914   0.32065   0.33430
 Alpha virt. eigenvalues --    0.33916   0.34210   0.34465   0.35076   0.35726
 Alpha virt. eigenvalues --    0.35938   0.36877   0.37240   0.37865   0.38630
 Alpha virt. eigenvalues --    0.39973   0.40292   0.41343   0.42251   0.42870
 Alpha virt. eigenvalues --    0.43425   0.44759   0.45034   0.45567   0.46038
 Alpha virt. eigenvalues --    0.48521   0.50057   0.59483   0.60840   0.63111
 Alpha virt. eigenvalues --    0.64868   0.65847   0.66958   0.68293   0.71482
 Alpha virt. eigenvalues --    0.71993   0.72590   0.74394   0.75134   0.75689
 Alpha virt. eigenvalues --    0.78081   0.78509   0.80082   0.81347   0.83702
 Alpha virt. eigenvalues --    0.85523   0.89240   0.91109   0.92903   0.93446
 Alpha virt. eigenvalues --    0.93831   0.94218   0.94843   0.95531   0.96076
 Alpha virt. eigenvalues --    0.97676   0.98196   0.98675   1.01689   1.02181
 Alpha virt. eigenvalues --    1.03187   1.03585   1.04257   1.04706   1.05706
 Alpha virt. eigenvalues --    1.06795   1.07954   1.08938   1.11053   1.12866
 Alpha virt. eigenvalues --    1.13924   1.14818   1.15952   1.16364   1.17455
 Alpha virt. eigenvalues --    1.18431   1.20296   1.21972   1.22878   1.24052
 Alpha virt. eigenvalues --    1.25248   1.26420   1.26665   1.27514   1.27864
 Alpha virt. eigenvalues --    1.28231   1.29489   1.30372   1.31554   1.33609
 Alpha virt. eigenvalues --    1.35477   1.36145   1.37539   1.38055   1.38510
 Alpha virt. eigenvalues --    1.40635   1.41939   1.42119   1.44716   1.46191
 Alpha virt. eigenvalues --    1.46953   1.48315   1.51715   1.52561   1.54109
 Alpha virt. eigenvalues --    1.55973   1.57016   1.57698   1.59466   1.60930
 Alpha virt. eigenvalues --    1.62462   1.63906   1.65442   1.66489   1.69334
 Alpha virt. eigenvalues --    1.70665   1.72524   1.74075   1.75264   1.76531
 Alpha virt. eigenvalues --    1.77860   1.82194   1.83676   1.83904   1.86328
 Alpha virt. eigenvalues --    1.89231   1.89989   1.92563   1.93496   1.94885
 Alpha virt. eigenvalues --    1.96729   1.98555   1.99757   2.02401   2.06231
 Alpha virt. eigenvalues --    2.06875   2.10347   2.14229   2.14712   2.19221
 Alpha virt. eigenvalues --    2.22064   2.25517   2.28895   2.30996   2.31922
 Alpha virt. eigenvalues --    2.34595   2.37574   2.43828   2.44647   2.47046
 Alpha virt. eigenvalues --    2.51002   2.54183   2.57977   2.58730   2.59311
 Alpha virt. eigenvalues --    2.60579   2.62008   2.63653   2.65261   2.67582
 Alpha virt. eigenvalues --    2.68277   2.71122   2.75634   2.78358   2.79917
 Alpha virt. eigenvalues --    2.81950   2.83475   2.84335   2.85707   2.87049
 Alpha virt. eigenvalues --    2.88013   2.89941   2.91772   2.95112   2.98460
 Alpha virt. eigenvalues --    2.99055   2.99659   3.02440   3.05568   3.05707
 Alpha virt. eigenvalues --    3.08650   3.09737   3.11237   3.12216   3.13179
 Alpha virt. eigenvalues --    3.14249   3.16005   3.17568   3.21682   3.26136
 Alpha virt. eigenvalues --    3.27870   3.29068   3.30067   3.32416   3.35853
 Alpha virt. eigenvalues --    3.38083   3.40020   3.40452   3.42467   3.46467
 Alpha virt. eigenvalues --    3.49312   3.51316   3.52087   3.57246   3.59065
 Alpha virt. eigenvalues --    3.61258   3.62702   3.67798   3.69428   3.70017
 Alpha virt. eigenvalues --    3.71797   3.73011   3.76598   3.78914   3.80896
 Alpha virt. eigenvalues --    3.87132   3.90985   3.91910   3.98583   4.05409
 Alpha virt. eigenvalues --    4.11405   4.13663   4.16081   4.20162   4.23118
 Alpha virt. eigenvalues --    4.24907   4.25813   4.28457   4.29714   4.31002
 Alpha virt. eigenvalues --    4.34617   4.35942   4.36428   4.38617   4.39498
 Alpha virt. eigenvalues --    4.40997   4.42975   4.45224   4.46267   4.48674
 Alpha virt. eigenvalues --    4.49439   4.51279   4.52723   4.53696   4.54532
 Alpha virt. eigenvalues --    4.56345   4.56774   4.59038   4.59365   4.61211
 Alpha virt. eigenvalues --    4.61588   4.62728   4.63831   4.64939   4.65889
 Alpha virt. eigenvalues --    4.67059   4.68403   4.69769   4.70552   4.72660
 Alpha virt. eigenvalues --    4.72886   4.74392   4.74857   4.76484   4.78104
 Alpha virt. eigenvalues --    4.79938   4.82738   4.83377   4.86013   4.86185
 Alpha virt. eigenvalues --    4.88899   4.92632   4.93649   4.94876   4.95163
 Alpha virt. eigenvalues --    4.97579   4.99410   5.02388   5.05861   5.06208
 Alpha virt. eigenvalues --    5.10938   5.11596   5.19237   5.21841   5.22759
 Alpha virt. eigenvalues --    5.25520   5.28529   5.30194   5.31607   5.33511
 Alpha virt. eigenvalues --    5.38466   5.39740   5.41098   5.42187   5.43961
 Alpha virt. eigenvalues --    5.46062   5.46896   5.47977   5.49023   5.49732
 Alpha virt. eigenvalues --    5.51041   5.53507   5.55017   5.57354   5.58145
 Alpha virt. eigenvalues --    5.62769   5.64433   5.68824   5.75404   5.75533
 Alpha virt. eigenvalues --    5.80047   5.82760   5.87597   5.92169   5.93264
 Alpha virt. eigenvalues --    5.94882   5.97593   5.99558   6.02122   6.03341
 Alpha virt. eigenvalues --    6.03748   6.06354   6.07168   6.08804   6.09785
 Alpha virt. eigenvalues --    6.12314   6.15426   6.18429   6.24241   6.29945
 Alpha virt. eigenvalues --    6.43314   6.85638   7.10118   7.13912   7.23555
 Alpha virt. eigenvalues --    7.25133   7.30181   7.40506   7.78705  11.87030
 Alpha virt. eigenvalues --   12.07729  12.33838  12.74158  12.89926  13.28831
 Alpha virt. eigenvalues --   13.34951  13.48204  13.52379  13.60535  13.68603
 Alpha virt. eigenvalues --   13.93798
          Condensed to atoms (all electrons):
              1          2          3          4          5          6
     1  C    5.194795   0.109411  -0.079504   0.138287  -0.266379  -0.022819
     2  C    0.109411   5.511284   0.355051  -0.440837   0.125165   0.019100
     3  C   -0.079504   0.355051   5.390823  -0.019485   0.118302  -0.185330
     4  C    0.138287  -0.440837  -0.019485   6.092849  -0.330179   0.018975
     5  C   -0.266379   0.125165   0.118302  -0.330179   6.530335  -0.345281
     6  C   -0.022819   0.019100  -0.185330   0.018975  -0.345281   5.757112
     7  O    0.309834  -0.081071  -0.013725   0.015219  -0.023228   0.004469
     8  O   -0.047347   0.257553  -0.065453  -0.012863   0.001049   0.000148
     9  O    0.002686  -0.041949   0.286770  -0.083363   0.011110  -0.004483
    10  O    0.018093  -0.018054  -0.007898   0.270750  -0.081200  -0.033821
    11  O    0.207096  -0.095113  -0.008372   0.008777   0.170897  -0.037304
    12  O   -0.000084  -0.001473   0.005807   0.006278   0.057961   0.129023
    13  H    0.374712  -0.046120  -0.002850   0.003750   0.010000   0.014433
    14  H   -0.027334   0.364340  -0.047813   0.029759  -0.004256   0.008312
    15  H   -0.021316  -0.002203   0.410918  -0.109246   0.031734   0.006871
    16  H    0.002127  -0.001617   0.053993   0.307313  -0.046437  -0.002634
    17  H    0.015244  -0.015917  -0.020236   0.040936   0.215386   0.078994
    18  H   -0.039865   0.025382   0.003058  -0.005163   0.001971  -0.000180
    19  H   -0.025661  -0.005512   0.011678  -0.000378   0.000458  -0.000043
    20  H    0.004482  -0.039573  -0.021501   0.031953  -0.000381   0.000666
    21  H   -0.003468   0.008798  -0.023692  -0.031092   0.025149   0.001140
    22  H   -0.000496   0.003082  -0.002293   0.012568  -0.078246   0.028426
    23  H   -0.000130   0.003011  -0.005177   0.000576  -0.101370   0.481908
    24  H    0.000398  -0.004825   0.003741   0.025375  -0.045306   0.386343
              7          8          9         10         11         12
     1  C    0.309834  -0.047347   0.002686   0.018093   0.207096  -0.000084
     2  C   -0.081071   0.257553  -0.041949  -0.018054  -0.095113  -0.001473
     3  C   -0.013725  -0.065453   0.286770  -0.007898  -0.008372   0.005807
     4  C    0.015219  -0.012863  -0.083363   0.270750   0.008777   0.006278
     5  C   -0.023228   0.001049   0.011110  -0.081200   0.170897   0.057961
     6  C    0.004469   0.000148  -0.004483  -0.033821  -0.037304   0.129023
     7  O    8.060126  -0.008360   0.000301  -0.000094  -0.007112   0.000126
     8  O   -0.008360   8.140534  -0.010859   0.000312   0.003047  -0.000029
     9  O    0.000301  -0.010859   8.130064  -0.017672  -0.002004   0.000021
    10  O   -0.000094   0.000312  -0.017672   8.125681   0.005201  -0.000795
    11  O   -0.007112   0.003047  -0.002004   0.005201   8.058798  -0.007752
    12  O    0.000126  -0.000029   0.000021  -0.000795  -0.007752   8.057259
    13  H   -0.026718   0.002745   0.000254   0.000034  -0.039013  -0.000201
    14  H   -0.001701  -0.027733   0.000360   0.000339   0.002849  -0.000039
    15  H    0.000308  -0.002594  -0.032569  -0.000108   0.003124   0.000047
    16  H   -0.000227  -0.000026  -0.002371  -0.035008   0.005539   0.000280
    17  H    0.000857  -0.000124   0.000118  -0.001672  -0.026449  -0.001257
    18  H    0.285164  -0.000508  -0.000002  -0.000004  -0.000988   0.000051
    19  H    0.008543   0.281096   0.000505   0.000001  -0.000318   0.000000
    20  H   -0.000039   0.010040   0.282949   0.000898   0.000012   0.000000
    21  H    0.000003  -0.000055   0.011876   0.275563  -0.000562  -0.000004
    22  H   -0.000085  -0.000008  -0.000002   0.000054   0.015802   0.281975
    23  H   -0.000006  -0.000005  -0.000024   0.000971   0.004582  -0.039152
    24  H    0.000160   0.000000   0.000004  -0.003530  -0.003287  -0.037347
             13         14         15         16         17         18
     1  C    0.374712  -0.027334  -0.021316   0.002127   0.015244  -0.039865
     2  C   -0.046120   0.364340  -0.002203  -0.001617  -0.015917   0.025382
     3  C   -0.002850  -0.047813   0.410918   0.053993  -0.020236   0.003058
     4  C    0.003750   0.029759  -0.109246   0.307313   0.040936  -0.005163
     5  C    0.010000  -0.004256   0.031734  -0.046437   0.215386   0.001971
     6  C    0.014433   0.008312   0.006871  -0.002634   0.078994  -0.000180
     7  O   -0.026718  -0.001701   0.000308  -0.000227   0.000857   0.285164
     8  O    0.002745  -0.027733  -0.002594  -0.000026  -0.000124  -0.000508
     9  O    0.000254   0.000360  -0.032569  -0.002371   0.000118  -0.000002
    10  O    0.000034   0.000339  -0.000108  -0.035008  -0.001672  -0.000004
    11  O   -0.039013   0.002849   0.003124   0.005539  -0.026449  -0.000988
    12  O   -0.000201  -0.000039   0.000047   0.000280  -0.001257   0.000051
    13  H    0.561525   0.003512   0.000515  -0.000104   0.002811  -0.007173
    14  H    0.003512   0.530026   0.003757   0.000105  -0.000091  -0.000117
    15  H    0.000515   0.003757   0.546352   0.003939   0.000607   0.000010
    16  H   -0.000104   0.000105   0.003939   0.556044   0.003887   0.000002
    17  H    0.002811  -0.000091   0.000607   0.003887   0.551513  -0.000030
    18  H   -0.007173  -0.000117   0.000010   0.000002  -0.000030   0.369401
    19  H   -0.000072  -0.004574  -0.000098   0.000009   0.000002  -0.000338
    20  H   -0.000001  -0.000204  -0.003333  -0.000109  -0.000001   0.000000
    21  H   -0.000001  -0.000001  -0.000402  -0.002453  -0.000275   0.000000
    22  H    0.000053   0.000000  -0.000001   0.000012   0.000169   0.000003
    23  H    0.000006  -0.000001  -0.000011   0.000150  -0.002507   0.000000
    24  H   -0.000011  -0.000018  -0.000007   0.001822   0.003993  -0.000001
             19         20         21         22         23         24
     1  C   -0.025661   0.004482  -0.003468  -0.000496  -0.000130   0.000398
     2  C   -0.005512  -0.039573   0.008798   0.003082   0.003011  -0.004825
     3  C    0.011678  -0.021501  -0.023692  -0.002293  -0.005177   0.003741
     4  C   -0.000378   0.031953  -0.031092   0.012568   0.000576   0.025375
     5  C    0.000458  -0.000381   0.025149  -0.078246  -0.101370  -0.045306
     6  C   -0.000043   0.000666   0.001140   0.028426   0.481908   0.386343
     7  O    0.008543  -0.000039   0.000003  -0.000085  -0.000006   0.000160
     8  O    0.281096   0.010040  -0.000055  -0.000008  -0.000005   0.000000
     9  O    0.000505   0.282949   0.011876  -0.000002  -0.000024   0.000004
    10  O    0.000001   0.000898   0.275563   0.000054   0.000971  -0.003530
    11  O   -0.000318   0.000012  -0.000562   0.015802   0.004582  -0.003287
    12  O    0.000000   0.000000  -0.000004   0.281975  -0.039152  -0.037347
    13  H   -0.000072  -0.000001  -0.000001   0.000053   0.000006  -0.000011
    14  H   -0.004574  -0.000204  -0.000001   0.000000  -0.000001  -0.000018
    15  H   -0.000098  -0.003333  -0.000402  -0.000001  -0.000011  -0.000007
    16  H    0.000009  -0.000109  -0.002453   0.000012   0.000150   0.001822
    17  H    0.000002  -0.000001  -0.000275   0.000169  -0.002507   0.003993
    18  H   -0.000338   0.000000   0.000000   0.000003   0.000000  -0.000001
    19  H    0.361602  -0.000284   0.000000   0.000000   0.000000   0.000000
    20  H   -0.000284   0.357045  -0.000359   0.000000   0.000000   0.000000
    21  H    0.000000  -0.000359   0.361317   0.000001   0.000099  -0.000057
    22  H    0.000000   0.000000   0.000001   0.376461   0.005050  -0.003385
    23  H    0.000000   0.000000   0.000099   0.005050   0.494877  -0.033068
    24  H    0.000000   0.000000  -0.000057  -0.003385  -0.033068   0.550237
 Mulliken atomic charges:
              1
     1  C    0.157235
     2  C    0.012087
     3  C   -0.136811
     4  C    0.029244
     5  C    0.022745
     6  C   -0.304023
     7  O   -0.522743
     8  O   -0.520558
     9  O   -0.531723
    10  O   -0.498040
    11  O   -0.257451
    12  O   -0.450695
    13  H    0.147914
    14  H    0.170525
    15  H    0.163706
    16  H    0.155765
    17  H    0.154044
    18  H    0.369326
    19  H    0.373383
    20  H    0.377742
    21  H    0.378475
    22  H    0.360860
    23  H    0.190222
    24  H    0.158771
 Sum of Mulliken atomic charges =   0.00000
 Mulliken charges with hydrogens summed into heavy atoms:
              1
     1  C    0.305149
     2  C    0.182612
     3  C    0.026895
     4  C    0.185008
     5  C    0.176790
     6  C    0.044970
     7  O   -0.153417
     8  O   -0.147175
     9  O   -0.153981
    10  O   -0.119566
    11  O   -0.257451
    12  O   -0.089835
 Sum of Mulliken charges with hydrogens summed into heavy atoms =   0.00000
 Electronic spatial extent (au):  <R**2>=           3219.4845
 Charge=              0.0000 electrons
 Dipole moment (field-independent basis, Debye):
    X=             -2.8055    Y=             -0.4132    Z=              1.2626  Tot=              3.1041
 Quadrupole moment (field-independent basis, Debye-Ang):
   XX=            -82.4477   YY=            -69.8083   ZZ=            -72.9435
   XY=              1.6178   XZ=              3.6583   YZ=             -3.0948
 Traceless Quadrupole moment (field-independent basis, Debye-Ang):
   XX=             -7.3812   YY=              5.2582   ZZ=              2.1230
   XY=              1.6178   XZ=              3.6583   YZ=             -3.0948
 Octapole moment (field-independent basis, Debye-Ang**2):
  XXX=           -270.4124  YYY=           -281.7535  ZZZ=            145.3400  XYY=            -76.0701
  XXY=            -71.1458  XXZ=             68.5722  XZZ=            -81.6548  YZZ=            -93.3200
  YYZ=             48.9780  XYZ=             -2.0009
 Hexadecapole moment (field-independent basis, Debye-Ang**3):
 XXXX=          -2032.6882 YYYY=          -1397.9782 ZZZZ=           -819.5631 XXXY=            -45.1710
 XXXZ=            302.3643 YYYX=           -113.0757 YYYZ=            335.1916 ZZZX=            279.9792
 ZZZY=            335.2327 XXYY=           -506.6155 XXZZ=           -436.5939 YYZZ=           -320.0211
 XXYZ=            107.7578 YYXZ=             98.4246 ZZXY=            -55.1929
 N-N= 8.286114675693D+02 E-N=-3.269080495050D+03  KE= 6.831508906403D+02
 Calling FoFJK, ICntrl=      2127 FMM=F ISym2X=0 I1Cent= 0 IOpClX= 0 NMat=1 NMatS=1 NMatT=0.
 -------------------------------------------------------------------
 Center     Atomic                   Forces (Hartrees/Bohr)
 Number     Number              X              Y              Z
 -------------------------------------------------------------------
      1        6           0.003512397    0.001799222    0.000449016
      2        6          -0.000666889   -0.000303812    0.000115505
      3        6          -0.000238800    0.001038079    0.000367037
      4        6           0.000209846    0.000271984   -0.001860922
      5        6           0.000487012    0.000829258   -0.000381187
      6        6           0.000939262   -0.002898872    0.000433336
      7        8          -0.001524929   -0.001804817    0.000374441
      8        8          -0.000408118    0.000166636    0.000470672
      9        8          -0.000386806   -0.000754585   -0.000312027
     10        8          -0.000698590   -0.000037421    0.001243535
     11        8          -0.002280007   -0.001100934    0.000434945
     12        8          -0.001228338    0.001477209    0.000088251
     13        1          -0.000488294   -0.000195023   -0.000774374
     14        1           0.000376109   -0.000206523   -0.000067111
     15        1           0.000085777   -0.000324814   -0.000143347
     16        1          -0.000181507    0.000037381    0.000363287
     17        1           0.000296571   -0.000045719   -0.000277762
     18        1           0.000514652    0.001901667    0.000065494
     19        1           0.000673072   -0.000080725   -0.000875153
     20        1           0.000818049   -0.000203412    0.000634698
     21        1           0.000023623   -0.000713700    0.000530663
     22        1           0.000517085    0.000707208   -0.001003851
     23        1          -0.000179378   -0.000016943   -0.000010277
     24        1          -0.000171798    0.000458655    0.000135132
 -------------------------------------------------------------------
 Cartesian Forces:  Max     0.003512397 RMS     0.000925136

 GradGradGradGradGradGradGradGradGradGradGradGradGradGradGradGradGradGrad
 Berny optimization.
 Internal  Forces:  Max     0.002464587 RMS     0.000490897
 Search for a local minimum.
 Step number   1 out of a maximum of  142
 All quantities printed in internal units (Hartrees-Bohrs-Radians)
 Mixed Optimization -- En-DIIS/RFO-DIIS
 Second derivative matrix not updated -- first step.
 ITU=  0
     Eigenvalues ---    0.00546   0.00752   0.00779   0.01539   0.01541
     Eigenvalues ---    0.01543   0.01570   0.01576   0.01895   0.03071
     Eigenvalues ---    0.03385   0.04531   0.04918   0.04935   0.05047
     Eigenvalues ---    0.05124   0.05356   0.05726   0.05997   0.06035
     Eigenvalues ---    0.06385   0.06657   0.06909   0.07093   0.07994
     Eigenvalues ---    0.09217   0.11051   0.11499   0.11519   0.13884
     Eigenvalues ---    0.13999   0.16000   0.16000   0.16000   0.16000
     Eigenvalues ---    0.16000   0.16344   0.17168   0.18431   0.19177
     Eigenvalues ---    0.19994   0.22075   0.27810   0.29482   0.29639
     Eigenvalues ---    0.29857   0.30692   0.33342   0.33429   0.33468
     Eigenvalues ---    0.33512   0.33666   0.33743   0.34649   0.40663
     Eigenvalues ---    0.41925   0.43780   0.43808   0.44124   0.44204
     Eigenvalues ---    0.48263   0.54581   0.54692   0.54707   0.54759
     Eigenvalues ---    0.54862
 RFO step:  Lambda=-1.82366095D-04 EMin= 5.45714052D-03
 Linear search not attempted -- first point.
 Iteration  1 RMS(Cart)=  0.00735526 RMS(Int)=  0.00005991
 Iteration  2 RMS(Cart)=  0.00006928 RMS(Int)=  0.00000258
 Iteration  3 RMS(Cart)=  0.00000001 RMS(Int)=  0.00000258
 Variable       Old X    -DE/DX   Delta X   Delta X   Delta X     New X
                                 (Linear)    (Quad)   (Total)
    R1        2.88184  -0.00077   0.00000  -0.00271  -0.00271   2.87913
    R2        2.61660   0.00069   0.00000   0.00143   0.00143   2.61803
    R3        2.66907  -0.00174   0.00000  -0.00409  -0.00409   2.66499
    R4        2.08455   0.00079   0.00000   0.00238   0.00238   2.08694
    R5        2.86763  -0.00073   0.00000  -0.00277  -0.00277   2.86486
    R6        2.66211  -0.00023   0.00000  -0.00053  -0.00053   2.66159
    R7        2.07898  -0.00008   0.00000  -0.00024  -0.00024   2.07874
    R8        2.87149  -0.00054   0.00000  -0.00164  -0.00164   2.86985
    R9        2.66719  -0.00109   0.00000  -0.00249  -0.00249   2.66470
   R10        2.08237   0.00028   0.00000   0.00084   0.00084   2.08321
   R11        2.88335  -0.00020   0.00000  -0.00052  -0.00052   2.88283
   R12        2.66307  -0.00201   0.00000  -0.00455  -0.00455   2.65852
   R13        2.08161   0.00021   0.00000   0.00061   0.00061   2.08222
   R14        2.86605  -0.00013   0.00000  -0.00044  -0.00044   2.86561
   R15        2.68461   0.00092   0.00000   0.00247   0.00247   2.68708
   R16        2.08304   0.00012   0.00000   0.00037   0.00037   2.08341
   R17        2.66685  -0.00246   0.00000  -0.00562  -0.00562   2.66123
   R18        2.06248  -0.00008   0.00000  -0.00022  -0.00022   2.06227
   R19        2.07766   0.00037   0.00000   0.00108   0.00108   2.07874
   R20        1.81955  -0.00174   0.00000  -0.00316  -0.00316   1.81639
   R21        1.82047  -0.00102   0.00000  -0.00186  -0.00186   1.81861
   R22        1.82093  -0.00083   0.00000  -0.00151  -0.00151   1.81942
   R23        1.82207  -0.00078   0.00000  -0.00143  -0.00143   1.82063
   R24        1.82107  -0.00125   0.00000  -0.00228  -0.00228   1.81878
    A1        1.87667  -0.00077   0.00000  -0.00362  -0.00363   1.87304
    A2        1.91433   0.00054   0.00000   0.00395   0.00395   1.91828
    A3        1.92053  -0.00024   0.00000  -0.00371  -0.00371   1.91682
    A4        1.90156   0.00041   0.00000   0.00455   0.00455   1.90611
    A5        1.94341   0.00027   0.00000   0.00055   0.00054   1.94395
    A6        1.90699  -0.00020   0.00000  -0.00156  -0.00155   1.90544
    A7        1.90882  -0.00001   0.00000  -0.00137  -0.00137   1.90745
    A8        1.94761   0.00023   0.00000   0.00060   0.00060   1.94822
    A9        1.88134  -0.00029   0.00000  -0.00229  -0.00229   1.87905
   A10        1.87395  -0.00029   0.00000  -0.00115  -0.00115   1.87280
   A11        1.91148   0.00019   0.00000   0.00061   0.00061   1.91209
   A12        1.94052   0.00019   0.00000   0.00357   0.00357   1.94409
   A13        1.92592   0.00008   0.00000  -0.00052  -0.00052   1.92540
   A14        1.95559  -0.00025   0.00000  -0.00139  -0.00138   1.95421
   A15        1.89384   0.00000   0.00000  -0.00068  -0.00068   1.89315
   A16        1.87505   0.00019   0.00000   0.00077   0.00077   1.87582
   A17        1.89159  -0.00013   0.00000   0.00007   0.00007   1.89166
   A18        1.92098   0.00012   0.00000   0.00180   0.00180   1.92279
   A19        1.90969   0.00005   0.00000   0.00094   0.00094   1.91063
   A20        1.93959  -0.00002   0.00000  -0.00072  -0.00072   1.93887
   A21        1.89431  -0.00016   0.00000  -0.00232  -0.00232   1.89199
   A22        1.89050  -0.00011   0.00000  -0.00061  -0.00061   1.88989
   A23        1.89757   0.00006   0.00000  -0.00010  -0.00009   1.89747
   A24        1.93171   0.00019   0.00000   0.00283   0.00283   1.93454
   A25        1.96450   0.00024   0.00000   0.00097   0.00096   1.96546
   A26        1.91369  -0.00035   0.00000   0.00024   0.00024   1.91393
   A27        1.90474   0.00005   0.00000  -0.00065  -0.00065   1.90409
   A28        1.85847   0.00030   0.00000   0.00238   0.00238   1.86085
   A29        1.90654  -0.00033   0.00000  -0.00371  -0.00371   1.90283
   A30        1.91525   0.00009   0.00000   0.00084   0.00084   1.91609
   A31        1.94212  -0.00004   0.00000  -0.00012  -0.00012   1.94201
   A32        1.91037  -0.00015   0.00000  -0.00146  -0.00146   1.90891
   A33        1.89984  -0.00026   0.00000  -0.00221  -0.00222   1.89762
   A34        1.87640   0.00014   0.00000   0.00144   0.00144   1.87784
   A35        1.93787   0.00022   0.00000   0.00194   0.00194   1.93980
   A36        1.89655   0.00010   0.00000   0.00044   0.00043   1.89698
   A37        1.91457   0.00011   0.00000   0.00066   0.00066   1.91522
   A38        1.89257  -0.00054   0.00000  -0.00338  -0.00338   1.88919
   A39        1.89062  -0.00060   0.00000  -0.00377  -0.00377   1.88685
   A40        1.87810  -0.00072   0.00000  -0.00447  -0.00447   1.87363
   A41        1.97276  -0.00010   0.00000  -0.00032  -0.00033   1.97243
   A42        1.87320  -0.00077   0.00000  -0.00482  -0.00482   1.86838
    D1        3.06578   0.00039   0.00000   0.00662   0.00661   3.07239
    D2       -1.14661   0.00016   0.00000   0.00469   0.00468  -1.14193
    D3        0.98886   0.00034   0.00000   0.00798   0.00797   0.99684
    D4        1.00039   0.00004   0.00000   0.00109   0.00109   1.00148
    D5        3.07119  -0.00019   0.00000  -0.00084  -0.00085   3.07034
    D6       -1.07652   0.00000   0.00000   0.00245   0.00245  -1.07407
    D7       -1.09795   0.00010   0.00000   0.00285   0.00285  -1.09510
    D8        0.97285  -0.00013   0.00000   0.00091   0.00092   0.97377
    D9        3.10833   0.00005   0.00000   0.00421   0.00421   3.11254
   D10        2.89507   0.00017   0.00000   0.02360   0.02360   2.91868
   D11       -1.31451   0.00061   0.00000   0.02875   0.02875  -1.28576
   D12        0.78998   0.00080   0.00000   0.03015   0.03015   0.82014
   D13       -1.09726   0.00004   0.00000   0.00326   0.00326  -1.09400
   D14        3.13604   0.00041   0.00000   0.00272   0.00271   3.13875
   D15        1.00930  -0.00004   0.00000   0.00017   0.00017   1.00947
   D16       -0.94733   0.00025   0.00000  -0.00145  -0.00145  -0.94878
   D17       -3.03586   0.00012   0.00000  -0.00116  -0.00116  -3.03703
   D18        1.12274   0.00013   0.00000  -0.00207  -0.00207   1.12067
   D19       -3.06337   0.00016   0.00000  -0.00069  -0.00069  -3.06407
   D20        1.13128   0.00003   0.00000  -0.00041  -0.00041   1.13087
   D21       -0.99330   0.00004   0.00000  -0.00132  -0.00132  -0.99462
   D22        1.11080  -0.00001   0.00000  -0.00467  -0.00467   1.10613
   D23       -0.97773  -0.00013   0.00000  -0.00439  -0.00439  -0.98212
   D24       -3.10231  -0.00012   0.00000  -0.00530  -0.00530  -3.10760
   D25        1.09615  -0.00020   0.00000  -0.01140  -0.01140   1.08475
   D26       -3.09556  -0.00027   0.00000  -0.01345  -0.01345  -3.10901
   D27       -1.00498  -0.00011   0.00000  -0.01134  -0.01134  -1.01632
   D28        0.94404   0.00011   0.00000   0.00217   0.00217   0.94621
   D29        3.03093   0.00000   0.00000   0.00156   0.00156   3.03250
   D30       -1.12417   0.00010   0.00000   0.00309   0.00310  -1.12108
   D31        3.08061  -0.00003   0.00000   0.00065   0.00065   3.08126
   D32       -1.11568  -0.00014   0.00000   0.00005   0.00004  -1.11563
   D33        1.01240  -0.00003   0.00000   0.00158   0.00158   1.01398
   D34       -1.12741   0.00015   0.00000   0.00325   0.00325  -1.12416
   D35        0.95948   0.00003   0.00000   0.00265   0.00265   0.96213
   D36        3.08756   0.00014   0.00000   0.00418   0.00418   3.09175
   D37       -1.03248   0.00037   0.00000   0.02056   0.02056  -1.01192
   D38        3.13263   0.00031   0.00000   0.02154   0.02154  -3.12901
   D39        1.07647   0.00029   0.00000   0.02001   0.02001   1.09648
   D40       -3.05490  -0.00014   0.00000  -0.00192  -0.00192  -3.05681
   D41       -0.98970   0.00015   0.00000   0.00183   0.00183  -0.98786
   D42        1.10861   0.00008   0.00000   0.00261   0.00261   1.11121
   D43        1.11143  -0.00008   0.00000  -0.00123  -0.00123   1.11020
   D44       -3.10656   0.00021   0.00000   0.00251   0.00252  -3.10404
   D45       -1.00825   0.00015   0.00000   0.00329   0.00329  -1.00496
   D46       -0.98871  -0.00028   0.00000  -0.00423  -0.00423  -0.99294
   D47        1.07649   0.00002   0.00000  -0.00048  -0.00048   1.07601
   D48       -3.10839  -0.00005   0.00000   0.00029   0.00029  -3.10810
   D49        0.88351  -0.00012   0.00000  -0.00645  -0.00645   0.87706
   D50        2.98181  -0.00014   0.00000  -0.00612  -0.00612   2.97569
   D51       -1.22266  -0.00002   0.00000  -0.00495  -0.00494  -1.22760
   D52        3.13995  -0.00009   0.00000  -0.01041  -0.01041   3.12954
   D53       -1.07180  -0.00004   0.00000  -0.00964  -0.00964  -1.08144
   D54        0.99881  -0.00016   0.00000  -0.01126  -0.01126   0.98755
   D55        1.04258   0.00000   0.00000  -0.01283  -0.01283   1.02975
   D56        3.11401   0.00005   0.00000  -0.01205  -0.01206   3.10196
   D57       -1.09856  -0.00007   0.00000  -0.01368  -0.01368  -1.11224
   D58       -1.02458  -0.00010   0.00000  -0.01319  -0.01319  -1.03777
   D59        1.04685  -0.00005   0.00000  -0.01242  -0.01242   1.03443
   D60        3.11747  -0.00017   0.00000  -0.01404  -0.01404   3.10342
   D61        1.09261  -0.00025   0.00000  -0.00615  -0.00615   1.08646
   D62       -3.06070   0.00002   0.00000  -0.00341  -0.00341  -3.06411
   D63       -0.99928  -0.00015   0.00000  -0.00602  -0.00602  -1.00529
   D64       -0.96627  -0.00006   0.00000  -0.00533  -0.00533  -0.97160
   D65       -3.05797   0.00006   0.00000  -0.00438  -0.00438  -3.06234
   D66        1.15283  -0.00026   0.00000  -0.00689  -0.00690   1.14593
         Item               Value     Threshold  Converged?
 Maximum Force            0.002465     0.000450     NO 
 RMS     Force            0.000491     0.000300     NO 
 Maximum Displacement     0.038433     0.001800     NO 
 RMS     Displacement     0.007361     0.001200     NO 
 Predicted change in Energy=-9.175119D-05
 GradGradGradGradGradGradGradGradGradGradGradGradGradGradGradGradGradGrad

                          Input orientation:                          
 ---------------------------------------------------------------------
 Center     Atomic      Atomic             Coordinates (Angstroms)
 Number     Number       Type             X           Y           Z
 ---------------------------------------------------------------------
      1          6           0        0.090312    0.388981    0.281270
      2          6           0       -0.504379    1.744696   -0.078802
      3          6           0        0.020563    2.177977   -1.433429
      4          6           0        1.539061    2.157406   -1.441699
      5          6           0        2.031344    0.780743   -1.006161
      6          6           0        3.540733    0.715672   -0.875650
      7          8           0       -0.342517    0.075129    1.559350
      8          8           0       -1.908535    1.687186   -0.172495
      9          8           0       -0.387022    3.487029   -1.763019
     10          8           0        2.041849    2.418878   -2.729332
     11          8           0        1.498492    0.465009    0.273798
     12          8           0        3.962768   -0.561210   -0.457729
     13          1           0       -0.235853   -0.369747   -0.451912
     14          1           0       -0.182649    2.464598    0.688192
     15          1           0       -0.340945    1.464911   -2.192445
     16          1           0        1.901045    2.907050   -0.719820
     17          1           0        1.701657    0.029995   -1.743166
     18          1           0       -0.157974   -0.849405    1.746618
     19          1           0       -2.258195    1.441544    0.689795
     20          1           0       -1.349362    3.513219   -1.749247
     21          1           0        1.605596    3.215008   -3.051937
     22          1           0        3.500335   -0.756520    0.363449
     23          1           0        3.996901    0.912173   -1.847372
     24          1           0        3.867930    1.492674   -0.169065
 ---------------------------------------------------------------------
                    Distance matrix (angstroms):
                    1          2          3          4          5
     1  C    0.000000
     2  C    1.523572   0.000000
     3  C    2.479024   1.516018   0.000000
     4  C    2.862660   2.490676   1.518660   0.000000
     5  C    2.361898   2.866896   2.485570   1.525529   0.000000
     6  C    3.653846   4.249328   3.852408   2.530948   1.516417
     7  O    1.385401   2.344610   3.675666   4.108834   3.565804
     8  O    2.426237   1.408453   2.356321   3.703769   4.127867
     9  O    3.742307   2.426125   1.410096   2.362400   3.707467
    10  O    4.122220   3.736724   2.413088   1.406827   2.377586
    11  O    1.410250   2.402794   2.834282   2.410143   1.421941
    12  O    4.055231   5.041448   4.898583   3.772722   2.414957
    13  H    1.104359   2.163836   2.742266   3.242915   2.602115
    14  H    2.132669   1.100022   2.150516   2.755918   3.256987
    15  H    2.731826   2.138335   1.102386   2.139530   2.739181
    16  H    3.259080   2.747369   2.139392   1.101865   2.149454
    17  H    2.612210   3.252215   2.745148   2.154808   1.102493
    18  H    1.934553   3.190849   4.394271   4.699597   3.876634
    19  H    2.605814   1.938689   3.200493   4.413035   4.659729
    20  H    3.994561   2.575278   1.938893   3.205589   4.409963
    21  H    4.625232   3.931073   2.491451   1.927644   3.208131
    22  H    3.598219   4.742299   4.893757   3.949193   2.529218
    23  H    4.479541   4.907388   4.193432   2.784988   2.142037
    24  H    3.961229   4.380496   4.107370   2.735891   2.140239
                    6          7          8          9         10
     6  C    0.000000
     7  O    4.628083   0.000000
     8  O    5.579676   2.837328   0.000000
     9  O    4.888261   4.762476   2.843273   0.000000
    10  O    2.929795   5.437937   4.762176   2.823848   0.000000
    11  O    2.356865   2.279027   3.647016   4.103217   3.623759
    12  O    1.408262   4.796771   6.293556   6.083806   4.210824
    13  H    3.952251   2.062636   2.665880   4.076343   4.260398
    14  H    4.400899   2.548340   2.079383   2.663750   4.077983
    15  H    4.166860   4.000933   2.566504   2.067726   2.622214
    16  H    2.741349   4.271764   4.037391   2.580675   2.072746
    17  H    2.145911   3.884237   4.271624   4.039066   2.606725
    18  H    4.796477   0.961191   3.630668   5.583428   5.962803
    19  H    6.050213   2.508593   0.962365   3.701567   5.579963
    20  H    5.701093   4.876578   2.476533   0.962795   3.695735
    21  H    3.837663   5.909141   4.793176   2.388687   0.963438
    22  H    1.924669   4.109663   5.959430   6.135235   4.666437
    23  H    1.091305   5.580050   6.187086   5.084858   2.621115
    24  H    1.100024   4.767045   5.779740   4.962132   3.278322
                   11         12         13         14         15
    11  O    0.000000
    12  O    2.767836   0.000000
    13  H    2.057042   4.202988   0.000000
    14  H    2.645054   5.258624   3.055517   0.000000
    15  H    3.235071   5.063235   2.531100   3.053277   0.000000
    16  H    2.667001   4.043294   3.921161   2.553437   3.045473
    17  H    2.073320   2.667301   2.362430   3.922932   2.536347
    18  H    2.576968   4.682171   2.251594   3.479007   4.572281
    19  H    3.903763   6.635376   2.945189   2.313987   3.461749
    20  H    4.636223   6.818190   4.242688   2.898609   2.325703
    21  H    4.316767   5.152281   4.795991   4.213015   2.755101
    22  H    2.346816   0.962457   3.843631   4.903614   5.120818
    23  H    3.307774   2.025619   4.637546   5.129108   4.386514
    24  H    2.620393   2.076237   4.515489   4.252848   4.670060
                   16         17         18         19         20
    16  H    0.000000
    17  H    3.060136   0.000000
    18  H    4.943059   4.050946   0.000000
    19  H    4.629687   4.857180   3.282720   0.000000
    20  H    3.462990   4.630507   5.716027   3.326671   0.000000
    21  H    2.370842   3.444766   6.531137   5.663445   3.243101
    22  H    4.141612   2.879526   3.912162   6.172411   6.798067
    23  H    3.105402   2.461147   5.769135   6.770796   5.946226
    24  H    2.484438   3.051222   5.036177   6.186248   5.813752
                   21         22         23         24
    21  H    0.000000
    22  H    5.570272   0.000000
    23  H    3.531624   2.814044   0.000000
    24  H    4.049141   2.340421   1.780542   0.000000
 Symmetry turned off by external request.
 Stoichiometry    C6H12O6
 Framework group  C1[X(C6H12O6)]
 Deg. of freedom    66
 Full point group                 C1      NOp   1
 Rotational constants (GHZ):      1.1842159      0.7971893      0.4971612
 Standard basis: 6-31+G(2df,p) (6D, 7F)
 Integral buffers will be    131072 words long.
 Raffenetti 2 integral format.
 Two-electron integral symmetry is turned off.
   444 basis functions,   660 primitive gaussians,   480 cartesian basis functions
    48 alpha electrons       48 beta electrons
       nuclear repulsion energy       829.1958625124 Hartrees.
 NAtoms=   24 NActive=   24 NUniq=   24 SFac= 1.00D+00 NAtFMM=   50 NAOKFM=F Big=F
 One-electron integrals computed using PRISM.
 NBasis=   444 RedAO= T  NBF=   444
 NBsUse=   444 1.00D-06 NBFU=   444
 Initial guess read from the read-write file.
 B after Tr=     0.000000    0.000000    0.000000
         Rot=    1.000000    0.000000    0.000000    0.000000 Ang=   0.00 deg.
 Harris functional with IExCor= 1009 diagonalized for initial guess.
 ExpMin= 4.38D-02 ExpMax= 5.48D+03 ExpMxC= 8.25D+02 IAcc=2 IRadAn=         0 AccDes= 0.00D+00
 HarFok:  IExCor= 1009 AccDes= 0.00D+00 IRadAn=         0 IDoV= 1
 ScaDFX=  1.000000  1.000000  1.000000  1.000000
 FoFCou: FMM=F IPFlag=           0 FMFlag=      100000 FMFlg1=           0
         NFxFlg=           0 DoJE=T BraDBF=F KetDBF=T FulRan=T
         Omega=  0.000000  0.000000  1.000000  0.000000  0.000000 ICntrl=     500 IOpCl=  0
         NMat0=    1 NMatS0=    1 NMatT0=    0 NMatD0=    1 NMtDS0=    0 NMtDT0=    0
         I1Cent=           4 NGrid=           0.
 Symmetry not used in FoFCou.
 Requested convergence on RMS density matrix=1.00D-06 within 128 cycles.
 Requested convergence on MAX density matrix=1.00D-04.
 Requested convergence on             energy=1.00D-04.
 No special actions if energy rises.
 SCF Done:  E(RM062X) =  -687.008148974     A.U. after    5 cycles
             Convg  =    0.8873D-06             -V/T =  2.0056
 QCSCF skips out because SCF is already converged.
 Calling FoFJK, ICntrl=      2127 FMM=F ISym2X=0 I1Cent= 0 IOpClX= 0 NMat=1 NMatS=1 NMatT=0.
 -------------------------------------------------------------------
 Center     Atomic                   Forces (Hartrees/Bohr)
 Number     Number              X              Y              Z
 -------------------------------------------------------------------
      1        6           0.001598102    0.000308106   -0.000256572
      2        6          -0.000170910   -0.000192615   -0.000134521
      3        6          -0.000020218    0.000330433    0.000338088
      4        6           0.000145700   -0.000316231   -0.000391309
      5        6          -0.000233226    0.000289696   -0.000468999
      6        6           0.000502110   -0.000762193    0.000338758
      7        8          -0.000908065   -0.000139438   -0.000140172
      8        8           0.000138053    0.000414645    0.000176047
      9        8           0.000054285   -0.000258493   -0.000601484
     10        8          -0.000019963    0.000158082    0.000382977
     11        8          -0.000893250   -0.000472801    0.000358721
     12        8          -0.000342517    0.000542723   -0.000063018
     13        1          -0.000364165   -0.000056693   -0.000061213
     14        1          -0.000030647    0.000115267    0.000000140
     15        1           0.000084568   -0.000049145   -0.000089501
     16        1           0.000036978    0.000023028    0.000147270
     17        1          -0.000088407   -0.000056963    0.000040396
     18        1           0.000714816    0.000066794    0.000271774
     19        1          -0.000116992   -0.000256314    0.000054260
     20        1          -0.000157668    0.000157258    0.000373568
     21        1          -0.000006695    0.000030652   -0.000273374
     22        1           0.000112386   -0.000259588    0.000080398
     23        1          -0.000112739    0.000161812   -0.000033462
     24        1           0.000078463    0.000221980   -0.000048772
 -------------------------------------------------------------------
 Cartesian Forces:  Max     0.001598102 RMS     0.000357209

 GradGradGradGradGradGradGradGradGradGradGradGradGradGradGradGradGradGrad
 Berny optimization.
 Using GEDIIS/GDIIS optimizer.
 Internal  Forces:  Max     0.000945757 RMS     0.000153178
 Search for a local minimum.
 Step number   2 out of a maximum of  142
 All quantities printed in internal units (Hartrees-Bohrs-Radians)
 Mixed Optimization -- En-DIIS/RFO-DIIS
 Swaping is turned off.
 Update second derivatives using D2CorX and points    1    2
 DE= -1.19D-04 DEPred=-9.18D-05 R= 1.30D+00
 SS=  1.41D+00  RLast= 7.98D-02 DXNew= 5.0454D-01 2.3939D-01
 Trust test= 1.30D+00 RLast= 7.98D-02 DXMaxT set to 3.00D-01
 ITU=  1  0
     Eigenvalues ---    0.00540   0.00743   0.00753   0.00978   0.01534
     Eigenvalues ---    0.01547   0.01564   0.01572   0.01700   0.03067
     Eigenvalues ---    0.03400   0.04559   0.04936   0.04967   0.05058
     Eigenvalues ---    0.05133   0.05387   0.05733   0.05994   0.06109
     Eigenvalues ---    0.06407   0.06705   0.06925   0.07103   0.07985
     Eigenvalues ---    0.09283   0.11037   0.11425   0.11510   0.13897
     Eigenvalues ---    0.14019   0.15970   0.16000   0.16000   0.16000
     Eigenvalues ---    0.16333   0.16906   0.17431   0.19004   0.19729
     Eigenvalues ---    0.20009   0.22079   0.27929   0.29550   0.29690
     Eigenvalues ---    0.30313   0.30968   0.33266   0.33427   0.33459
     Eigenvalues ---    0.33509   0.33682   0.33713   0.34652   0.40343
     Eigenvalues ---    0.40748   0.43762   0.43938   0.44203   0.45526
     Eigenvalues ---    0.48215   0.54597   0.54691   0.54734   0.54803
     Eigenvalues ---    0.58595
 En-DIIS/RFO-DIIS IScMMF=        0 using points:     2    1
 RFO step:  Lambda=-1.33286749D-05.
 DidBck=F Rises=F RFO-DIIS coefs:    1.42966   -0.42966
 Iteration  1 RMS(Cart)=  0.00709586 RMS(Int)=  0.00013266
 Iteration  2 RMS(Cart)=  0.00013133 RMS(Int)=  0.00000214
 Iteration  3 RMS(Cart)=  0.00000004 RMS(Int)=  0.00000214
 Variable       Old X    -DE/DX   Delta X   Delta X   Delta X     New X
                                  (DIIS)     (GDIIS)  (Total)
    R1        2.87913   0.00016  -0.00116   0.00063  -0.00054   2.87860
    R2        2.61803   0.00019   0.00061   0.00057   0.00119   2.61921
    R3        2.66499  -0.00095  -0.00176  -0.00316  -0.00492   2.66007
    R4        2.08694   0.00019   0.00102   0.00083   0.00185   2.08879
    R5        2.86486   0.00012  -0.00119   0.00023  -0.00096   2.86390
    R6        2.66159  -0.00003  -0.00023  -0.00011  -0.00034   2.66125
    R7        2.07874   0.00006  -0.00010   0.00026   0.00016   2.07890
    R8        2.86985   0.00013  -0.00070   0.00068  -0.00003   2.86983
    R9        2.66470  -0.00001  -0.00107  -0.00005  -0.00112   2.66358
   R10        2.08321   0.00007   0.00036   0.00029   0.00065   2.08386
   R11        2.88283   0.00001  -0.00022   0.00019  -0.00003   2.88280
   R12        2.65852  -0.00008  -0.00195  -0.00027  -0.00222   2.65630
   R13        2.08222   0.00013   0.00026   0.00055   0.00081   2.08304
   R14        2.86561   0.00027  -0.00019   0.00126   0.00108   2.86669
   R15        2.68708   0.00016   0.00106   0.00077   0.00183   2.68890
   R16        2.08341   0.00003   0.00016   0.00015   0.00031   2.08372
   R17        2.66123  -0.00032  -0.00242  -0.00107  -0.00348   2.65775
   R18        2.06227   0.00001  -0.00009   0.00003  -0.00007   2.06220
   R19        2.07874   0.00016   0.00047   0.00067   0.00113   2.07988
   R20        1.81639   0.00013  -0.00136   0.00032  -0.00103   1.81535
   R21        1.81861   0.00015  -0.00080   0.00039  -0.00041   1.81819
   R22        1.81942   0.00017  -0.00065   0.00043  -0.00022   1.81920
   R23        1.82063   0.00012  -0.00062   0.00031  -0.00031   1.82033
   R24        1.81878   0.00007  -0.00098   0.00018  -0.00080   1.81798
    A1        1.87304  -0.00002  -0.00156  -0.00053  -0.00210   1.87094
    A2        1.91828   0.00019   0.00170   0.00125   0.00295   1.92123
    A3        1.91682  -0.00005  -0.00159   0.00019  -0.00141   1.91541
    A4        1.90611  -0.00017   0.00195  -0.00126   0.00070   1.90681
    A5        1.94395  -0.00003   0.00023  -0.00142  -0.00120   1.94276
    A6        1.90544   0.00007  -0.00067   0.00174   0.00108   1.90652
    A7        1.90745  -0.00006  -0.00059  -0.00095  -0.00154   1.90591
    A8        1.94822   0.00006   0.00026   0.00109   0.00135   1.94957
    A9        1.87905   0.00001  -0.00099   0.00015  -0.00084   1.87821
   A10        1.87280   0.00005  -0.00049   0.00147   0.00097   1.87378
   A11        1.91209   0.00002   0.00026  -0.00025   0.00001   1.91210
   A12        1.94409  -0.00009   0.00154  -0.00154   0.00000   1.94409
   A13        1.92540  -0.00010  -0.00022  -0.00110  -0.00133   1.92408
   A14        1.95421   0.00007  -0.00059   0.00175   0.00115   1.95536
   A15        1.89315   0.00002  -0.00029  -0.00063  -0.00092   1.89223
   A16        1.87582   0.00009   0.00033   0.00139   0.00173   1.87755
   A17        1.89166  -0.00001   0.00003  -0.00060  -0.00057   1.89109
   A18        1.92279  -0.00007   0.00077  -0.00089  -0.00011   1.92268
   A19        1.91063  -0.00009   0.00040  -0.00027   0.00013   1.91076
   A20        1.93887   0.00014  -0.00031   0.00175   0.00144   1.94031
   A21        1.89199  -0.00004  -0.00100  -0.00113  -0.00213   1.88986
   A22        1.88989   0.00001  -0.00026   0.00094   0.00068   1.89056
   A23        1.89747   0.00002  -0.00004  -0.00119  -0.00123   1.89624
   A24        1.93454  -0.00003   0.00122  -0.00017   0.00105   1.93559
   A25        1.96546   0.00004   0.00041   0.00042   0.00083   1.96629
   A26        1.91393   0.00010   0.00010   0.00082   0.00092   1.91485
   A27        1.90409  -0.00003  -0.00028   0.00033   0.00005   1.90414
   A28        1.86085  -0.00015   0.00102  -0.00189  -0.00087   1.85997
   A29        1.90283   0.00007  -0.00159   0.00116  -0.00044   1.90239
   A30        1.91609  -0.00003   0.00036  -0.00091  -0.00055   1.91555
   A31        1.94201   0.00005  -0.00005   0.00076   0.00071   1.94271
   A32        1.90891  -0.00019  -0.00063  -0.00261  -0.00324   1.90567
   A33        1.89762   0.00002  -0.00095   0.00039  -0.00056   1.89706
   A34        1.87784   0.00011   0.00062   0.00127   0.00188   1.87972
   A35        1.93980   0.00005   0.00083   0.00188   0.00271   1.94251
   A36        1.89698  -0.00005   0.00019  -0.00183  -0.00165   1.89533
   A37        1.91522  -0.00007   0.00028  -0.00059  -0.00031   1.91491
   A38        1.88919   0.00016  -0.00145   0.00139  -0.00006   1.88913
   A39        1.88685   0.00010  -0.00162   0.00088  -0.00074   1.88611
   A40        1.87363   0.00041  -0.00192   0.00368   0.00176   1.87539
   A41        1.97243  -0.00001  -0.00014  -0.00011  -0.00026   1.97217
   A42        1.86838   0.00052  -0.00207   0.00460   0.00253   1.87091
    D1        3.07239  -0.00001   0.00284   0.00062   0.00346   3.07585
    D2       -1.14193   0.00006   0.00201   0.00250   0.00451  -1.13743
    D3        0.99684   0.00000   0.00343   0.00137   0.00479   1.00163
    D4        1.00148   0.00010   0.00047   0.00175   0.00222   1.00370
    D5        3.07034   0.00017  -0.00036   0.00363   0.00326   3.07361
    D6       -1.07407   0.00010   0.00105   0.00250   0.00355  -1.07052
    D7       -1.09510  -0.00008   0.00123  -0.00131  -0.00008  -1.09517
    D8        0.97377  -0.00001   0.00039   0.00057   0.00097   0.97473
    D9        3.11254  -0.00007   0.00181  -0.00056   0.00125   3.11379
   D10        2.91868   0.00036   0.01014   0.03167   0.04182   2.96049
   D11       -1.28576   0.00048   0.01235   0.03217   0.04452  -1.24124
   D12        0.82014   0.00044   0.01296   0.03261   0.04557   0.86571
   D13       -1.09400   0.00001   0.00140   0.00093   0.00234  -1.09166
   D14        3.13875   0.00001   0.00116   0.00159   0.00275   3.14149
   D15        1.00947   0.00011   0.00007   0.00303   0.00310   1.01257
   D16       -0.94878   0.00008  -0.00062  -0.00180  -0.00242  -0.95120
   D17       -3.03703  -0.00001  -0.00050  -0.00396  -0.00446  -3.04148
   D18        1.12067   0.00002  -0.00089  -0.00354  -0.00443   1.11624
   D19       -3.06407   0.00001  -0.00030  -0.00344  -0.00374  -3.06780
   D20        1.13087  -0.00008  -0.00018  -0.00560  -0.00578   1.12509
   D21       -0.99462  -0.00006  -0.00057  -0.00518  -0.00575  -1.00037
   D22        1.10613   0.00007  -0.00201  -0.00232  -0.00433   1.10180
   D23       -0.98212  -0.00002  -0.00189  -0.00448  -0.00637  -0.98848
   D24       -3.10760   0.00000  -0.00228  -0.00406  -0.00634  -3.11394
   D25        1.08475  -0.00014  -0.00490  -0.01245  -0.01735   1.06740
   D26       -3.10901  -0.00014  -0.00578  -0.01205  -0.01782  -3.12684
   D27       -1.01632  -0.00013  -0.00487  -0.01233  -0.01720  -1.03352
   D28        0.94621  -0.00003   0.00093   0.00143   0.00236   0.94857
   D29        3.03250   0.00000   0.00067   0.00352   0.00419   3.03669
   D30       -1.12108   0.00002   0.00133   0.00367   0.00500  -1.11607
   D31        3.08126   0.00005   0.00028   0.00379   0.00407   3.08533
   D32       -1.11563   0.00009   0.00002   0.00588   0.00590  -1.10974
   D33        1.01398   0.00010   0.00068   0.00603   0.00671   1.02069
   D34       -1.12416   0.00001   0.00140   0.00319   0.00459  -1.11957
   D35        0.96213   0.00004   0.00114   0.00528   0.00642   0.96855
   D36        3.09175   0.00006   0.00180   0.00543   0.00723   3.09897
   D37       -1.01192   0.00021   0.00883   0.02125   0.03009  -0.98183
   D38       -3.12901   0.00023   0.00925   0.02062   0.02988  -3.09914
   D39        1.09648   0.00024   0.00860   0.02101   0.02961   1.12609
   D40       -3.05681   0.00014  -0.00082   0.00203   0.00120  -3.05561
   D41       -0.98786   0.00005   0.00079   0.00046   0.00125  -0.98661
   D42        1.11121   0.00005   0.00112   0.00005   0.00117   1.11238
   D43        1.11020   0.00003  -0.00053  -0.00052  -0.00105   1.10915
   D44       -3.10404  -0.00007   0.00108  -0.00209  -0.00100  -3.10504
   D45       -1.00496  -0.00007   0.00141  -0.00250  -0.00108  -1.00605
   D46       -0.99294   0.00005  -0.00182  -0.00018  -0.00200  -0.99494
   D47        1.07601  -0.00004  -0.00021  -0.00175  -0.00195   1.07405
   D48       -3.10810  -0.00004   0.00013  -0.00216  -0.00203  -3.11013
   D49        0.87706  -0.00004  -0.00277  -0.00523  -0.00800   0.86906
   D50        2.97569  -0.00006  -0.00263  -0.00390  -0.00653   2.96916
   D51       -1.22760  -0.00005  -0.00212  -0.00486  -0.00699  -1.23459
   D52        3.12954   0.00003  -0.00447   0.00067  -0.00381   3.12573
   D53       -1.08144   0.00007  -0.00414   0.00103  -0.00311  -1.08455
   D54        0.98755  -0.00008  -0.00484  -0.00245  -0.00729   0.98026
   D55        1.02975  -0.00002  -0.00551   0.00066  -0.00485   1.02490
   D56        3.10196   0.00002  -0.00518   0.00103  -0.00416   3.09780
   D57       -1.11224  -0.00013  -0.00588  -0.00246  -0.00834  -1.12058
   D58       -1.03777   0.00006  -0.00567   0.00217  -0.00350  -1.04127
   D59        1.03443   0.00010  -0.00534   0.00254  -0.00280   1.03164
   D60        3.10342  -0.00005  -0.00603  -0.00095  -0.00698   3.09644
   D61        1.08646  -0.00001  -0.00264  -0.00205  -0.00469   1.08177
   D62       -3.06411   0.00001  -0.00146  -0.00222  -0.00369  -3.06779
   D63       -1.00529  -0.00001  -0.00259  -0.00240  -0.00498  -1.01028
   D64       -0.97160  -0.00009  -0.00229  -0.00252  -0.00481  -0.97641
   D65       -3.06234   0.00005  -0.00188  -0.00057  -0.00245  -3.06479
   D66        1.14593   0.00001  -0.00296  -0.00020  -0.00316   1.14277
         Item               Value     Threshold  Converged?
 Maximum Force            0.000946     0.000450     NO 
 RMS     Force            0.000153     0.000300     YES
 Maximum Displacement     0.048207     0.001800     NO 
 RMS     Displacement     0.007098     0.001200     NO 
 Predicted change in Energy=-5.142853D-05
 GradGradGradGradGradGradGradGradGradGradGradGradGradGradGradGradGradGrad

                          Input orientation:                          
 ---------------------------------------------------------------------
 Center     Atomic      Atomic             Coordinates (Angstroms)
[...]
 3404,0.11530765,0.18659526,-0.00065886,0.00000352,-0.00023076,0.000481
 50,-0.00068765,-0.00218265,-0.01516011,-0.02576848,-0.02155797,-0.0821
 2113,-0.05914030,-0.05656323,0.00445324,0.00932546,0.00660666,0.000786
 64,0.00115568,0.00089734,0.00013420,-0.00009852,0.00015072,-0.00000088
 ,0.00048735,0.00076834,0.00358991,0.00019535,0.00125176,0.00630872,0.0
 0896946,0.01482341,0.00016164,-0.00102806,0.00028504,-0.00025536,-0.00
 041627,-0.00007320,-0.00000894,0.00021281,0.00008194,-0.00021507,0.000
 07997,0.00092481,-0.00579021,0.00044606,0.00017797,0.08847603,0.000115
 72,-0.00039610,-0.00017493,-0.00051252,-0.00020823,-0.00066165,0.00132
 180,-0.00167774,-0.00114054,-0.06009912,-0.16959837,-0.10703383,-0.009
 84129,-0.02344547,-0.01984194,-0.00192124,0.00022537,-0.00110753,-0.00
 004043,0.00003971,0.00024810,0.00032944,0.00018521,0.00023793,-0.00012
 441,0.00158046,0.00040092,0.00286173,0.01104195,0.00712200,0.00020022,
 0.00313125,0.00056955,0.00035608,0.00079742,0.00057691,0.00016733,0.00
 020599,0.00001140,-0.00034335,0.00016346,0.00052418,0.00002046,0.00039
 126,0.00036540,0.06418402,0.18086597,0.00036080,-0.00001042,0.00002710
 ,0.00002454,0.00032750,-0.00053670,-0.00180205,-0.00319625,0.00075200,
 -0.05619112,-0.10563336,-0.14212944,0.00253731,0.00541261,0.00469068,0
 .00001695,0.00008586,0.00014568,-0.00000631,0.00001006,0.00003008,0.00
 013042,0.00013421,0.00033068,0.00037833,0.00026189,0.00023824,-0.00084
 476,-0.01517119,-0.03957947,-0.00074717,-0.00033121,0.00184467,-0.0000
 5143,0.00011430,0.00012405,-0.00002300,0.00000195,-0.00009686,0.000359
 68,0.00014143,0.00046603,0.00032103,-0.00001082,0.00044120,0.05538872,
 0.11760688,0.17353997,0.00323704,0.00225746,0.00295660,-0.00033564,0.0
 0003015,-0.00005634,0.00085217,0.00062646,0.00075510,0.00339123,0.0097
 1184,0.00576188,-0.07515124,-0.05384474,-0.05257606,-0.01243687,-0.025
 00758,-0.02202620,-0.00043637,-0.00033605,-0.00017083,-0.00005424,0.00
 002442,-0.00010828,-0.00017131,-0.00014735,-0.00006641,-0.00004217,-0.
 00096058,0.00038936,0.00196541,0.00748216,0.01386922,0.00380614,0.0007
 9236,0.00217729,0.00039039,-0.00050853,-0.00060882,-0.00005131,-0.0001
 3906,-0.00004365,-0.00006020,0.00011454,-0.00024387,-0.00044032,0.0017
 2130,-0.00049329,0.08075866,0.00107098,0.00076787,0.00070857,-0.000183
 19,-0.00030670,0.00002192,-0.00193273,-0.00006650,-0.00117355,-0.00969
 414,-0.02309059,-0.02097563,-0.05419701,-0.17175209,-0.11246721,0.0008
 9798,-0.00123384,0.00030522,-0.00007017,-0.00002525,0.00040444,0.00018
 364,0.00020456,-0.00007060,0.00029233,0.00059988,0.00059385,0.00027761
 ,0.00270044,0.00040273,0.00220105,0.01058138,0.00748998,-0.00011030,0.
 00182573,0.00019073,0.00080030,-0.00009353,-0.00052191,-0.00013158,0.0
 0003468,0.00019589,0.00098979,0.00040205,0.00049539,0.00206246,-0.0041
 7916,0.00179216,0.05784990,0.18275902,-0.00669813,-0.00190668,-0.00079
 221,0.00026824,0.00038928,-0.00000640,0.00024776,0.00005690,-0.0000035
 5,0.00160251,0.00524500,0.00516313,-0.05045489,-0.11043876,-0.14861049
 ,-0.00131513,-0.00286279,-0.00023186,0.00110338,0.00085919,0.00046041,
 0.00041149,-0.00026284,0.00023288,-0.00017591,0.00019608,0.00014895,-0
 .00020046,-0.00077084,0.00155754,0.00226348,-0.01559110,-0.03909123,0.
 00070953,0.00058997,0.00021464,0.00149793,0.00069962,0.00068576,-0.000
 11022,0.00015786,0.00003901,0.00022659,0.00005596,0.00017098,-0.000279
 27,0.00176539,-0.00037797,0.05142435,0.12211584,0.17939658,0.00399227,
 -0.01547652,0.00675993,-0.00041189,-0.00001351,0.00149659,0.00037130,0
 .00001401,0.00014894,0.00029821,-0.00020451,-0.00020116,-0.00090657,0.
 00035113,0.00114288,0.00006993,-0.00029373,0.00004809,-0.05944896,0.15
 796774,-0.02836377,0.00049982,-0.00009718,-0.00050992,-0.00014330,-0.0
 0006662,0.00004064,-0.00018959,0.00024917,-0.00021783,0.00047757,0.000
 12764,-0.00105433,0.00010098,0.00024713,-0.00023673,-0.00039822,0.0004
 8570,0.00061553,-0.00007104,-0.00001211,0.00002478,-0.00004287,-0.0000
 3577,-0.00003040,-0.00001905,-0.00004666,-0.00000430,0.00002767,-0.000
 08608,-0.00024449,0.05531594,0.00240483,-0.00988726,0.00109994,-0.0005
 8722,0.00090125,0.00276184,0.00064020,-0.00006796,-0.00024546,0.000156
 25,-0.00023311,-0.00001755,-0.00009276,-0.00001504,0.00112169,-0.00011
 581,0.00030501,-0.00033414,0.13945861,-0.46215680,0.12010008,-0.000416
 06,0.00039373,-0.00043474,-0.00009989,0.00006831,0.00001629,-0.0000560
 3,0.00021672,-0.00024678,0.00133754,0.00029468,-0.00266794,0.00015515,
 -0.00030237,0.00002322,0.00013303,0.00196809,-0.00163643,-0.00003723,0
 .00060176,-0.00008421,-0.00006064,0.00002525,0.00012776,-0.00001756,-0
 .00000611,0.,0.00000191,0.00001418,-0.00020946,-0.14304604,0.46798470,
 -0.01219555,0.04420048,-0.01486778,0.00349962,0.00018616,-0.00723895,-
 0.00105712,0.00165557,0.00100034,-0.00025918,0.00013707,0.00008577,0.0
 0023020,0.00018489,-0.00069284,0.00016050,-0.00012791,0.00015515,-0.00
 889905,0.07605868,-0.05777955,0.00017649,-0.00067653,0.00064380,0.0001
 7998,0.00039721,-0.00076817,0.00007233,-0.00021987,0.00014854,-0.00068
 771,-0.00197348,0.00212389,-0.00027240,-0.00000936,-0.00013235,-0.0008
 1168,-0.00043981,0.00083723,0.00017947,-0.00009942,0.00025498,-0.00005
 340,-0.00014287,-0.00006642,0.00002058,-0.00003353,-0.00000562,0.00000
 642,-0.00003674,-0.00006613,0.02001747,-0.11927960,0.07635536,-0.00231
 126,0.00064088,0.00300939,-0.02139196,-0.01196172,0.04081092,-0.008709
 84,0.00047124,-0.00224177,0.00083671,-0.00068269,0.00189923,-0.0002413
 5,-0.00029246,0.00087157,-0.00004811,0.00007247,-0.00010807,0.00070541
 ,-0.00101625,-0.00018702,-0.09830787,-0.04032591,0.12291552,0.00092443
 ,0.00062050,-0.00069909,-0.00086787,0.00003265,0.00019234,0.00184319,-
 0.00030982,-0.00085341,0.00013014,-0.00000918,-0.00003162,0.00005385,-
 0.00002704,-0.00019749,0.00098811,-0.00075807,-0.00034003,0.00020634,0
 .00020186,-0.00023800,-0.00004382,-0.00004968,-0.00012778,0.00000466,0
 .00003559,-0.00009358,0.00081992,0.00023485,-0.00051597,0.12559406,0.0
 0379399,0.00240532,-0.00325656,-0.00068650,-0.00127704,0.00104644,0.00
 027817,-0.00078850,-0.00014061,0.00005345,0.00054444,0.00038953,0.0000
 3396,0.00029435,-0.00048449,-0.00002317,0.00003498,0.00009387,-0.00185
 794,-0.00038445,0.00057192,-0.05414496,-0.04596220,0.12914681,-0.00054
 060,0.00012458,-0.00010766,0.00004619,-0.00009546,-0.00003847,-0.00106
 775,-0.00083008,0.00078152,-0.00003135,-0.00011930,0.00003566,0.000093
 77,-0.00037035,-0.00008685,0.00015377,0.00005458,0.00079839,0.00003876
 ,0.00004798,0.00007849,0.00005520,-0.00008002,-0.00004444,-0.00000513,
 -0.00003546,0.00003024,-0.00007209,-0.00025313,0.00016476,0.05381177,0
 .04601478,-0.00086270,-0.00098115,0.00229464,-0.00458060,-0.00149157,0
 .00330232,-0.00029933,0.00047016,0.00039791,-0.00004213,0.00017292,0.0
 0030946,0.00029015,-0.00003211,-0.00025735,0.00008672,-0.00002696,0.00
 003004,-0.00003710,-0.00022254,-0.00128132,0.17228553,0.13140602,-0.43
 256713,0.00002032,-0.00047771,0.00041073,-0.00031030,-0.00006421,0.000
 18587,-0.00092304,0.00072387,-0.00069841,-0.00011310,0.00006882,-0.000
 04582,0.00030318,-0.00012779,-0.00034937,-0.00167638,-0.00044368,0.000
 56629,-0.00012201,0.00010513,0.00039672,0.00011249,-0.00000938,0.00003
 241,0.00000440,-0.00000508,-0.00000523,0.00036541,-0.00017256,-0.00020
 881,-0.16442332,-0.12869756,0.42774859,-0.00099111,0.00038549,0.000045
 81,0.00248782,-0.00163975,0.00009967,-0.01229275,0.00022762,0.00010063
 ,0.00023837,0.00271972,0.00000093,-0.00049534,-0.00025936,0.00014873,0
 .00003948,0.00021628,-0.00001963,0.00001462,-0.00056510,0.00052878,-0.
 00089110,0.00026724,-0.00037396,-0.52414996,0.03207602,0.03069832,0.00
 081667,-0.00004134,-0.00047332,-0.00007068,0.00001850,0.00004303,0.000
 03222,-0.00010885,0.00002675,0.00004713,-0.00006185,0.00001434,-0.0002
 5801,0.00017149,-0.00032020,0.00076586,-0.00156008,0.00028077,0.000417
 37,0.00000519,0.00013118,-0.00000870,0.00007958,0.00001869,0.00002369,
 0.00000147,0.00009089,-0.00006885,0.00007760,-0.00016385,0.53464163,0.
 00081213,-0.00024541,-0.00016876,0.00267763,0.00031186,0.00165987,0.04
 436181,-0.00672199,-0.00097166,0.00057533,-0.00724749,0.00196497,0.002
 44245,0.00080895,-0.00037904,-0.00026467,-0.00051003,0.00021197,-0.000
 33175,0.00029653,-0.00028251,-0.00014724,-0.00003334,-0.00139342,-0.01
 607397,-0.03947905,0.01070593,-0.00085830,0.00053563,0.00013505,-0.000
 99533,0.00016349,0.00007056,0.00021866,-0.00015821,0.00008885,-0.00000
 146,-0.00007650,-0.00006336,-0.00034599,-0.00001082,-0.00014584,0.0002
 5513,-0.00012732,-0.00066949,-0.00015950,0.00011100,0.00014035,-0.0000
 4278,0.00002448,-0.00004192,0.00001750,-0.00003274,0.00002399,-0.00082
 111,0.00064922,-0.00018942,-0.03176585,0.05191336,-0.00092153,0.000513
 34,0.00029189,-0.00371910,0.00156341,0.00010549,-0.01181146,0.00081480
 ,0.00007831,-0.00046370,0.00310411,-0.00171179,-0.00096987,-0.00018865
 ,0.00115173,0.00017593,0.00014966,-0.00005319,0.00032604,-0.00040045,0
 .00002510,0.00082000,-0.00183312,0.00033864,0.04509497,0.00741685,-0.0
 0993079,0.00064634,-0.00071896,0.00017073,0.00104853,-0.00023567,-0.00
 037810,-0.00010717,0.00009565,-0.00009796,0.00005464,-0.00023648,-0.00
 001572,-0.00004663,0.00008441,-0.00053451,0.00084785,0.00006621,0.0003
 2769,0.00023533,0.00001075,0.00004324,-0.00002334,0.00004961,-0.000106
 45,-0.00001393,0.00002055,0.00001139,0.00037742,-0.00026852,-0.0002623
 9,-0.03079770,-0.01004599,0.00982459,0.00151600,-0.00018789,-0.0000852
 1,0.00000608,0.00035648,0.00019033,0.00081169,-0.00437923,0.00362592,0
 .00706371,-0.01577966,0.00857983,-0.00190708,-0.00007391,0.00241342,-0
 .00044723,0.00028713,0.00036434,-0.00036338,0.00026459,-0.00012850,-0.
 00011226,0.00028216,-0.00032623,0.00053638,0.00090591,-0.00157924,-0.1
 2946424,0.21219869,-0.07703282,-0.00056897,-0.00143078,0.00165504,0.00
 011484,-0.00011096,-0.00015721,-0.00008954,-0.00000292,-0.00005418,0.0
 0003892,-0.00003331,-0.00013839,-0.00040671,-0.00007948,-0.00006325,-0
 .00009483,0.00064249,0.00053503,-0.00010505,0.00004111,-0.00005574,0.0
 0007355,0.00003292,-0.00004231,-0.00002566,-0.00003509,0.00003597,-0.0
 0024237,0.00037672,-0.00069212,0.12341133,0.00023192,-0.00029816,0.000
 33844,0.00033250,-0.00077593,0.00065727,0.00049828,0.00160786,-0.00101
 769,0.00323749,-0.00753037,0.00261789,-0.00103340,0.00065012,0.0017829
 9,0.00016439,0.00018491,-0.00000917,-0.00003339,0.00012303,-0.00020803
 ,0.00057499,0.00013150,-0.00054646,-0.00010068,-0.00068355,-0.00053377
 ,0.19001962,-0.35503906,0.15397182,0.00027344,-0.00005966,0.00000186,-
 0.00016638,0.00012100,-0.00019402,-0.00002057,-0.00000758,-0.00001100,
 0.00003193,0.00002222,-0.00017915,-0.00058116,-0.00060418,0.00013949,0
 .00016039,0.00068189,-0.00156620,-0.00008721,0.00033255,-0.00013427,0.
 00000919,-0.00000930,0.00002853,0.00009780,0.00001909,0.00003224,-0.00
 025199,-0.00021012,0.00003766,-0.19339738,0.36144278,-0.00076245,0.000
 29044,-0.00008434,-0.00030691,0.00016364,-0.00040543,0.00078603,0.0023
 3188,0.00097455,-0.01644546,0.03739829,-0.02075860,0.00305630,-0.00238
 232,-0.00472397,0.00006867,-0.00002369,0.00001886,0.00014242,-0.000213
 75,0.00012838,-0.00040258,-0.00035645,0.00037731,-0.00091248,-0.000528
 07,-0.00049218,-0.04802800,0.11762989,-0.08568238,0.00025909,0.0020988
 4,-0.00117284,0.00008273,-0.00030589,0.00023030,0.00007544,-0.00003927
 ,0.00001462,0.00000017,-0.00000133,-0.00010338,0.00003205,-0.00039085,
 0.00000636,-0.00070114,0.00000497,-0.00010340,0.00007820,0.00006161,0.
 00018858,-0.00002193,0.00000515,0.00001645,-0.00001772,0.00001368,-0.0
 0004360,-0.00006524,-0.00061479,0.00069053,0.06339883,-0.15528967,0.11
 099458,-0.00253199,-0.00098862,0.00088721,0.00012015,0.00057474,-0.000
 14036,-0.00006158,0.00028227,-0.00035427,-0.00007385,0.00043054,0.0000
 3303,0.00150727,0.00286027,-0.00438839,0.00577721,0.00568515,-0.012664
 87,0.00057025,0.00005658,-0.00050886,0.00061776,-0.00045552,0.00014022
 ,0.00005070,-0.00034812,0.00022907,-0.00026085,-0.00041981,0.00051294,
 0.00110107,-0.00083211,0.00074171,-0.13687154,-0.04647925,0.22667868,0
 .00020783,0.00008984,0.00005161,0.00000932,-0.00002710,0.00000445,-0.0
 0004557,-0.00001586,-0.00000307,0.00003872,-0.00014396,0.00000013,-0.0
 0024645,-0.00009106,0.00009636,-0.00042616,-0.00015071,0.00027839,-0.0
 0016312,0.00009317,0.00006242,-0.00004006,0.00007106,-0.00006416,-0.00
 001652,0.00002560,0.00006263,0.13145111,0.00148161,0.00110681,-0.00106
 224,-0.00005393,-0.00023785,0.00004498,0.00016357,-0.00003621,0.000011
 33,-0.00059163,-0.00021738,0.00038596,0.00036653,0.00065638,0.00201530
 ,-0.01745702,-0.01536025,0.03987557,-0.00026133,-0.00033988,0.00041797
 ,-0.00042401,0.00014607,-0.00003262,-0.00016009,0.00014465,-0.00008949
 ,0.00020257,0.00004269,-0.00028967,-0.00151330,-0.00093370,-0.00027261
 ,-0.01977353,-0.05436805,0.06523126,-0.00037493,-0.00007425,-0.0001374
 2,0.00002012,-0.00003096,-0.00001729,-0.00003723,-0.00000727,-0.000026
 40,-0.00001922,-0.00012328,-0.00004911,-0.00011640,-0.00002691,-0.0003
 1205,-0.00004976,0.00029043,0.00001795,0.00006467,0.00001637,-0.000040
 37,0.00002758,-0.00000479,0.00001857,0.00007038,0.00000810,0.00000163,
 0.03692488,0.07505494,-0.00078636,-0.00032492,0.00053915,-0.00004528,0
 .00004412,0.00006663,-0.00031465,-0.00018325,0.00013055,0.00089444,0.0
 0048331,-0.00061444,0.00083396,-0.00032861,-0.00010050,0.00569810,0.00
 305641,-0.01252865,-0.00000128,0.00014389,-0.00068751,0.00021208,-0.00
 003107,-0.00008125,0.00033807,-0.00020238,-0.00001661,-0.00009393,-0.0
 0001881,0.00013203,0.00099339,-0.00113175,-0.00037410,0.20429645,0.104
 41028,-0.38760315,-0.00011017,-0.00003093,-0.00008646,0.00001047,-0.00
 003926,-0.00000681,-0.00000201,-0.00000339,-0.00002300,0.00000832,-0.0
 0011934,0.00000114,-0.00038468,0.00010861,-0.00040192,0.00025291,0.000
 02901,0.00022811,-0.00000895,-0.00000526,0.00005055,-0.00001853,-0.000
 02231,0.00003311,-0.00002858,0.00004858,-0.00003769,-0.21074390,-0.106
 65097,0.39859398,0.00172083,-0.00004543,0.00123433,0.00005657,-0.00034
 655,0.00014579,-0.00012092,-0.00014936,0.00011295,-0.00021350,-0.00013
 040,0.00136916,-0.00890892,-0.00432347,0.02968763,-0.10391952,-0.02177
 021,0.10662605,-0.00105228,-0.00021528,0.00067730,-0.00016189,0.000245
 73,-0.00016092,0.00017256,0.00009413,-0.00020748,0.00053047,-0.0001297
 9,-0.00050984,-0.00959320,-0.00022432,-0.00027516,0.00705748,0.0049765
 9,-0.01285101,-0.00019343,-0.00007433,-0.00012858,-0.00000022,0.000021
 15,-0.00001301,-0.00001852,-0.00001554,-0.00001001,-0.00003215,0.00007
 827,-0.00023280,0.00116464,-0.00058838,-0.00034454,0.00004678,0.000135
 64,-0.00007277,0.00007807,-0.00005365,-0.00000519,-0.00001312,-0.00001
 734,0.00002987,0.00027416,0.00003062,-0.00029967,-0.00049572,0.0024820
 1,-0.00114429,0.10794199,-0.00033552,0.00033925,0.00016788,-0.00006619
 ,0.00007137,-0.00008426,-0.00003565,0.00008919,0.00001138,-0.00013456,
 0.00021472,-0.00082014,-0.00338404,0.00024727,-0.00068907,-0.01555618,
 -0.05313076,0.02883571,0.00016984,0.00004301,-0.00018299,0.00004364,-0
 .00006117,0.00005239,-0.00004455,-0.00004369,0.00005393,0.00007276,-0.
 00069875,0.00061496,0.00180588,0.00079008,-0.00029312,-0.01339494,-0.0
 1473729,0.03612084,0.00016013,-0.00000779,0.00002046,-0.00000915,0.000
 00121,0.00001515,-0.00000648,-0.00000304,0.00000774,-0.00001852,-0.000
 01323,0.00006328,0.00001401,0.00009178,0.00034317,0.00001599,-0.000049
 10,0.00001827,-0.00002490,0.00000901,0.00000445,-0.00000021,0.00000934
 ,-0.00001002,0.00008389,-0.00004148,0.00012900,0.00223683,-0.00588955,
 0.00233437,0.01875999,0.06780031,-0.00021848,0.00013425,0.00050849,-0.
 00003678,-0.00000108,-0.00001028,-0.00006929,-0.00009452,0.00005646,0.
 00138815,0.00001508,-0.00053501,-0.00109663,-0.00194169,0.00264848,0.1
 0565693,0.03831771,-0.26824037,-0.00020030,-0.00006588,0.00013086,0.00
 002970,-0.00001529,0.00001338,0.00006798,-0.00006513,0.00004330,-0.001
 10989,0.00088418,-0.00050255,-0.00173266,0.00010814,0.00121284,0.00248
 281,0.00769591,-0.00833007,0.00007776,-0.00000517,0.00000141,-0.000010
 22,0.00000960,0.00000212,0.00001057,0.00000232,0.00000146,0.00016787,0
 .00008958,0.00000997,0.00040422,-0.00014091,0.00047188,-0.00003592,0.0
 0000180,-0.00000463,-0.00001048,0.00000328,0.00000142,0.00000458,-0.00
 001856,0.00000326,-0.00026577,-0.00000256,-0.00003829,-0.00163506,0.00
 089502,0.00148369,-0.11352771,-0.04835679,0.28735117,-0.00031781,-0.00
 019846,-0.00017039,0.00007003,-0.00004583,-0.00010085,0.00007286,0.000
 06553,0.00008813,0.00107021,-0.00251217,-0.00051002,-0.01515138,-0.022
 56002,-0.02584053,-0.07456225,-0.05322722,-0.04974975,0.00005187,0.000
 12560,0.00024346,0.00007626,0.00001288,0.00004963,-0.00014673,0.000246
 63,0.00009886,0.00007812,0.00022738,0.00026396,0.00368558,0.00086367,-
 0.00027616,0.00562806,0.01329804,0.00674866,0.00027861,0.00021653,0.00
 023820,-0.00003626,0.00006096,0.00006015,0.00022671,0.00016298,0.00014
 900,-0.00000724,0.00111863,0.00033989,-0.00605815,0.00030231,0.0001020
 5,-0.00005996,-0.00001244,-0.00004520,-0.00000517,-0.00001156,-0.00000
 753,-0.00000281,0.00001686,-0.00002621,-0.00000281,-0.00001603,-0.0000
 7898,-0.00021798,-0.00097151,0.00014442,0.00567985,0.00964794,0.009658
 61,0.07965040,0.00006759,0.00004372,0.00017241,-0.00005710,-0.00004210
 ,-0.00002163,0.00019038,0.00042252,0.00012931,-0.00008366,0.00081445,0
 .00059912,-0.00042763,0.00038353,-0.00195113,-0.05377304,-0.15738370,-
 0.11099698,-0.00001908,0.00006104,0.00001877,0.00004364,0.00003396,0.0
 0000867,-0.00015992,0.00002286,0.00000232,-0.00020265,0.00004917,-0.00
 010198,0.00017485,0.00024176,0.00015754,-0.00167385,-0.04073313,-0.011
 75133,0.00014433,0.00000469,-0.00000701,-0.00002087,0.00002617,0.00001
 624,0.00018270,-0.00010949,-0.00002632,0.00001635,0.00030674,-0.000079
 50,0.00056891,0.00047141,0.00002622,0.00001539,-0.00005120,-0.00003445
 ,-0.00000544,-0.00001870,-0.00000153,-0.00001938,0.00003396,-0.0000077
 0,-0.00003189,-0.00006567,0.00001707,0.00062118,0.00018387,-0.00156634
 ,0.00125990,0.00496932,0.00255074,0.05318928,0.19033480,0.00050245,0.0
 0013936,0.00017274,-0.00000536,-0.00007870,-0.00000278,0.00007760,0.00
 018981,0.00012558,-0.00020129,-0.00088538,-0.00029408,0.00027333,-0.00
 363817,-0.00446931,-0.05098195,-0.11444410,-0.16799685,-0.00018643,-0.
 00001471,0.00009983,-0.00003919,0.00007551,-0.00001145,-0.00011325,0.0
 0014523,0.00000394,0.00010639,0.00058136,0.00011142,-0.00036174,0.0005
 7184,0.00169315,0.00282337,0.01170431,0.01290248,0.00015958,-0.0000123
 0,-0.00013150,-0.00002689,0.00001836,0.00003017,0.00017751,0.00001006,
 0.00004163,-0.00031308,0.00058869,0.00011231,-0.00102527,0.00045508,0.
 00096310,0.00002154,0.00002154,-0.00002975,0.00001789,-0.00002418,-0.0
 0000753,-0.00000066,0.00000553,-0.00000480,-0.00014917,0.00003523,0.00
 000557,0.00072407,0.00006470,0.00130314,-0.01010007,-0.01835658,-0.016
 27901,0.05862062,0.12284752,0.17166200\\-0.00008540,-0.00000495,0.0000
 0920,0.00000671,-0.00001539,-0.00000610,0.00001314,-0.00001031,0.00000
 255,-0.00002051,0.00000175,0.00003848,0.00000516,-0.00002197,0.0000109
 7,-0.00002650,0.00006452,0.00000049,0.00001054,0.00000877,-0.00002816,
 -0.00000559,0.00000908,-0.00000661,-0.00000232,0.00000269,-0.00002325,
 0.00002690,0.00001246,-0.00002139,0.00004643,0.00001280,-0.00000330,0.
 00002291,-0.00004520,0.00001555,0.00001516,0.00000067,-0.00000218,-0.0
 0000443,-0.00000283,-0.00000518,0.00001307,0.00000540,-0.00000570,0.00
 000082,-0.00000136,-0.00000227,0.00000623,0.00000643,-0.00000101,-0.00
 001284,-0.00001453,-0.00000623,-0.00001046,-0.00001280,-0.00001232,-0.
 00000219,0.00000271,0.00000915,0.00000462,0.00000324,0.00000411,-0.000
 00556,0.00000995,0.00000283,0.00000567,-0.00000531,0.00001633,-0.00000
 158,-0.00000583,0.00001403\\\@


 ONE BIG VICE IN A MAN IS APT TO KEEP OUT MANY SMALLER ONES.

                           -- BRET HARTE
 Job cpu time:  0 days  6 hours 44 minutes 43.3 seconds.
 File lengths (MBytes):  RWF=    397 Int=      0 D2E=      0 Chk=     20 Scr=      1
 Normal termination of Gaussian 09 at Wed Sep 21 03:58:11 2011.
