 Entering Gaussian System, Link 0=g09
 Initial command:
 /projects/nrel/apps/gaussian/g09/B.01/g09/l1.exe /scratch/hbmayes/alpringb3ltsmircfoptm.2437814.scr/Gau-6265.inp -scrdir=/scratch/hbmayes/alpringb3ltsmircfoptm.2437814.scr/
 Default is to use a total of   8 processors:
                                8 via shared-memory
                                1 via Linda
 Entering Link 1 = /projects/nrel/apps/gaussian/g09/B.01/g09/l1.exe PID=      6266.
  
 Copyright (c) 1988,1990,1992,1993,1995,1998,2003,2009,2010,
            Gaussian, Inc.  All Rights Reserved.
  
 This is part of the Gaussian(R) 09 program.  It is based on
 the Gaussian(R) 03 system (copyright 2003, Gaussian, Inc.),
 the Gaussian(R) 98 system (copyright 1998, Gaussian, Inc.),
 the Gaussian(R) 94 system (copyright 1995, Gaussian, Inc.),
 the Gaussian 92(TM) system (copyright 1992, Gaussian, Inc.),
 the Gaussian 90(TM) system (copyright 1990, Gaussian, Inc.),
 the Gaussian 88(TM) system (copyright 1988, Gaussian, Inc.),
 the Gaussian 86(TM) system (copyright 1986, Carnegie Mellon
 University), and the Gaussian 82(TM) system (copyright 1983,
 Carnegie Mellon University). Gaussian is a federally registered
 trademark of Gaussian, Inc.
  
 This software contains proprietary and confidential information,
 including trade secrets, belonging to Gaussian, Inc.
  
 This software is provided under written license and may be
 used, copied, transmitted, or stored only in accord with that
 written license.
  
 The following legend is applicable only to US Government
 contracts under FAR:
  
                    RESTRICTED RIGHTS LEGEND
  
 Use, reproduction and disclosure by the US Government is
 subject to restrictions as set forth in subparagraphs (a)
 and (c) of the Commercial Computer Software - Restricted
 Rights clause in FAR 52.227-19.
  
 Gaussian, Inc.
 340 Quinnipiac St., Bldg. 40, Wallingford CT 06492
  
  
 ---------------------------------------------------------------
 Warning -- This program may not be used in any manner that
 competes with the business of Gaussian, Inc. or will provide
 assistance to any competitor of Gaussian, Inc.  The licensee
 of this program is prohibited from giving any competitor of
 Gaussian, Inc. access to this program.  By using this program,
 the user acknowledges that Gaussian, Inc. is engaged in the
 business of creating and licensing software in the field of
 computational chemistry and represents and warrants to the
 licensee that it is not a competitor of Gaussian, Inc. and that
 it will not use this program in any manner prohibited above.
 ---------------------------------------------------------------
  

 Cite this work as:
 Gaussian 09, Revision B.01,
 M. J. Frisch, G. W. Trucks, H. B. Schlegel, G. E. Scuseria, 
 M. A. Robb, J. R. Cheeseman, G. Scalmani, V. Barone, B. Mennucci, 
 G. A. Petersson, H. Nakatsuji, M. Caricato, X. Li, H. P. Hratchian, 
 A. F. Izmaylov, J. Bloino, G. Zheng, J. L. Sonnenberg, M. Hada, 
 M. Ehara, K. Toyota, R. Fukuda, J. Hasegawa, M. Ishida, T. Nakajima, 
 Y. Honda, O. Kitao, H. Nakai, T. Vreven, J. A. Montgomery, Jr., 
 J. E. Peralta, F. Ogliaro, M. Bearpark, J. J. Heyd, E. Brothers, 
 K. N. Kudin, V. N. Staroverov, T. Keith, R. Kobayashi, J. Normand, 
 K. Raghavachari, A. Rendell, J. C. Burant, S. S. Iyengar, J. Tomasi, 
 M. Cossi, N. Rega, J. M. Millam, M. Klene, J. E. Knox, J. B. Cross, 
 V. Bakken, C. Adamo, J. Jaramillo, R. Gomperts, R. E. Stratmann, 
 O. Yazyev, A. J. Austin, R. Cammi, C. Pomelli, J. W. Ochterski, 
 R. L. Martin, K. Morokuma, V. G. Zakrzewski, G. A. Voth, 
 P. Salvador, J. J. Dannenberg, S. Dapprich, A. D. Daniels, 
 O. Farkas, J. B. Foresman, J. V. Ortiz, J. Cioslowski, 
 and D. J. Fox, Gaussian, Inc., Wallingford CT, 2010.
 
 ******************************************
 Gaussian 09:  EM64L-G09RevB.01 12-Aug-2010
                19-May-2013 
 ******************************************
 %RWF=/dev/shm/,2GB,/scratch/hbmayes/alpringb3ltsmircfoptm.2437814.scr/,-1
 %NoSave
 %CHK=/scratch/hbmayes/glucose/alpringb3ltsmircfoptm.chk
 %mem=10GB
 %nproc=8
 Will use up to    8 processors via shared memory.
 Default route:  MaxDisk=16GB
 ----------------------------------------------------------------------
 # opt(Tight) freq=noraman m062x/6-311+G(2df,p) Int=(Grid=Ultrafine) no
 symm scrf=(solvent=ethanol) scf=(xqc,maxcycle=1000)
 ----------------------------------------------------------------------
 1/7=10,14=-1,18=20,19=15,26=3,38=1/1,3;
 2/9=110,12=2,15=1,17=6,18=5,40=1/2;
 3/5=4,6=6,7=114,11=2,16=1,25=1,30=1,70=2201,71=1,72=4,74=-55,75=-5/1,2,3;
 4//1;
 5/5=2,7=1000,8=3,13=1,38=5,53=4/2,8;
 6/7=2,8=2,9=2,10=2,28=1/1;
 7/30=1/1,2,3,16;
 1/7=10,14=-1,18=20,19=15/3(2);
 2/9=110,15=1/2;
 99//99;
 2/9=110,15=1/2;
 3/5=4,6=6,7=114,11=2,16=1,25=1,30=1,70=2205,71=1,72=4,74=-55,75=-5/1,2,3;
 4/5=5,16=3/1;
 5/5=2,7=1000,8=3,13=1,38=5,53=4/2,8;
 7/30=1/1,2,3,16;
 1/7=10,14=-1,18=20,19=15/3(-5);
 2/9=110,15=1/2;
 6/7=2,8=2,9=2,10=2,19=2,28=1/1;
 99/9=1/99;
 --------------
 look for low E
 --------------
 Symbolic Z-matrix:
 Charge =  0 Multiplicity = 1
 6                    -0.82107   0.37682  -1.43599 
 6                    -1.51462  -0.34504  -0.27136 
 6                    -0.82745   0.01462   1.03566 
 6                     0.62553  -0.41612   0.97969 
 6                     1.38108   0.44958  -0.00995 
 6                     2.68538  -0.187    -0.4685 
 8                    -1.29856   1.66782  -1.60552 
 8                    -2.88811  -0.02434  -0.21565 
 8                    -1.42699  -0.67378   2.11028 
 8                     1.26559  -0.2598    2.22604 
 8                     0.60056   0.72524  -1.18259 
 8                     2.4415   -1.36877  -1.20191 
 1                    -0.86225  -0.19616  -2.36559 
 1                    -2.3785   -0.52161   2.07038 
 1                     0.73224  -0.71454   2.88815 
 1                     2.03443  -1.11698  -2.03755 
 1                    -1.448    -1.42648  -0.41321 
 1                    -0.88452   1.10117   1.19859 
 1                     0.66522  -1.46661   0.66121 
 1                     1.59741   1.40379   0.48425 
 1                     3.2547    0.53382  -1.06269 
 1                     3.27814  -0.4607    0.40579 
 1                    -0.49028   2.17263  -1.44314 
 1                    -2.97537   0.91461  -0.43035 
 

 GradGradGradGradGradGradGradGradGradGradGradGradGradGradGradGradGradGrad
 Berny optimization.
 Initialization pass.
                           ----------------------------
                           !    Initial Parameters    !
                           ! (Angstroms and Degrees)  !
 --------------------------                            --------------------------
 ! Name  Definition              Value          Derivative Info.                !
 --------------------------------------------------------------------------------
 ! R1    R(1,2)                  1.5357         estimate D2E/DX2                !
 ! R2    R(1,7)                  1.3869         estimate D2E/DX2                !
 ! R3    R(1,11)                 1.4855         estimate D2E/DX2                !
 ! R4    R(1,13)                 1.0928         estimate D2E/DX2                !
 ! R5    R(2,3)                  1.5198         estimate D2E/DX2                !
 ! R6    R(2,8)                  1.4115         estimate D2E/DX2                !
 ! R7    R(2,17)                 1.0927         estimate D2E/DX2                !
 ! R8    R(3,4)                  1.5165         estimate D2E/DX2                !
 ! R9    R(3,9)                  1.41           estimate D2E/DX2                !
 ! R10   R(3,18)                 1.1002         estimate D2E/DX2                !
 ! R11   R(4,5)                  1.5165         estimate D2E/DX2                !
 ! R12   R(4,10)                 1.4098         estimate D2E/DX2                !
 ! R13   R(4,19)                 1.0984         estimate D2E/DX2                !
 ! R14   R(5,6)                  1.5221         estimate D2E/DX2                !
 ! R15   R(5,11)                 1.4354         estimate D2E/DX2                !
 ! R16   R(5,20)                 1.0962         estimate D2E/DX2                !
 ! R17   R(6,12)                 1.4121         estimate D2E/DX2                !
 ! R18   R(6,21)                 1.094          estimate D2E/DX2                !
 ! R19   R(6,22)                 1.0912         estimate D2E/DX2                !
 ! R20   R(7,23)                 0.9667         estimate D2E/DX2                !
 ! R21   R(8,24)                 0.9671         estimate D2E/DX2                !
 ! R22   R(9,14)                 0.9644         estimate D2E/DX2                !
 ! R23   R(10,15)                0.9642         estimate D2E/DX2                !
 ! R24   R(12,16)                0.963          estimate D2E/DX2                !
 ! A1    A(2,1,7)              112.01           estimate D2E/DX2                !
 ! A2    A(2,1,11)             114.3992         estimate D2E/DX2                !
 ! A3    A(2,1,13)             112.4349         estimate D2E/DX2                !
 ! A4    A(7,1,11)              97.5859         estimate D2E/DX2                !
 ! A5    A(7,1,13)             111.7851         estimate D2E/DX2                !
 ! A6    A(11,1,13)            107.7075         estimate D2E/DX2                !
 ! A7    A(1,2,3)              109.6787         estimate D2E/DX2                !
 ! A8    A(1,2,8)              111.2586         estimate D2E/DX2                !
 ! A9    A(1,2,17)             109.8291         estimate D2E/DX2                !
 ! A10   A(3,2,8)              110.6245         estimate D2E/DX2                !
 ! A11   A(3,2,17)             108.558          estimate D2E/DX2                !
 ! A12   A(8,2,17)             106.8161         estimate D2E/DX2                !
 ! A13   A(2,3,4)              109.5264         estimate D2E/DX2                !
 ! A14   A(2,3,9)              110.3427         estimate D2E/DX2                !
 ! A15   A(2,3,18)             109.7318         estimate D2E/DX2                !
 ! A16   A(4,3,9)              107.2683         estimate D2E/DX2                !
 ! A17   A(4,3,18)             109.6137         estimate D2E/DX2                !
 ! A18   A(9,3,18)             110.3192         estimate D2E/DX2                !
 ! A19   A(3,4,5)              109.8342         estimate D2E/DX2                !
 ! A20   A(3,4,10)             111.7694         estimate D2E/DX2                !
 ! A21   A(3,4,19)             108.4793         estimate D2E/DX2                !
 ! A22   A(5,4,10)             106.7045         estimate D2E/DX2                !
 ! A23   A(5,4,19)             109.7995         estimate D2E/DX2                !
 ! A24   A(10,4,19)            110.2408         estimate D2E/DX2                !
 ! A25   A(4,5,6)              112.6312         estimate D2E/DX2                !
 ! A26   A(4,5,11)             111.8298         estimate D2E/DX2                !
 ! A27   A(4,5,20)             107.5208         estimate D2E/DX2                !
 ! A28   A(6,5,11)             107.4677         estimate D2E/DX2                !
 ! A29   A(6,5,20)             109.3161         estimate D2E/DX2                !
 ! A30   A(11,5,20)            107.9669         estimate D2E/DX2                !
 ! A31   A(5,6,12)             111.0076         estimate D2E/DX2                !
 ! A32   A(5,6,21)             109.5132         estimate D2E/DX2                !
 ! A33   A(5,6,22)             109.2099         estimate D2E/DX2                !
 ! A34   A(12,6,21)            111.0514         estimate D2E/DX2                !
 ! A35   A(12,6,22)            107.4605         estimate D2E/DX2                !
 ! A36   A(21,6,22)            108.528          estimate D2E/DX2                !
 ! A37   A(1,7,23)             100.2354         estimate D2E/DX2                !
 ! A38   A(2,8,24)             107.4343         estimate D2E/DX2                !
 ! A39   A(3,9,14)             108.1162         estimate D2E/DX2                !
 ! A40   A(4,10,15)            107.6775         estimate D2E/DX2                !
 ! A41   A(1,11,5)             127.9315         estimate D2E/DX2                !
 ! A42   A(6,12,16)            107.7508         estimate D2E/DX2                !
 ! D1    D(7,1,2,3)            -84.3665         estimate D2E/DX2                !
 ! D2    D(7,1,2,8)             38.3541         estimate D2E/DX2                !
 ! D3    D(7,1,2,17)           156.4065         estimate D2E/DX2                !
 ! D4    D(11,1,2,3)            25.4929         estimate D2E/DX2                !
 ! D5    D(11,1,2,8)           148.2135         estimate D2E/DX2                !
 ! D6    D(11,1,2,17)          -93.734          estimate D2E/DX2                !
 ! D7    D(13,1,2,3)           148.7652         estimate D2E/DX2                !
 ! D8    D(13,1,2,8)           -88.5142         estimate D2E/DX2                !
 ! D9    D(13,1,2,17)           29.5382         estimate D2E/DX2                !
 ! D10   D(2,1,7,23)           118.054          estimate D2E/DX2                !
 ! D11   D(11,1,7,23)           -2.1668         estimate D2E/DX2                !
 ! D12   D(13,1,7,23)         -114.7279         estimate D2E/DX2                !
 ! D13   D(2,1,11,5)             1.0788         estimate D2E/DX2                !
 ! D14   D(7,1,11,5)           119.4749         estimate D2E/DX2                !
 ! D15   D(13,1,11,5)         -124.7051         estimate D2E/DX2                !
 ! D16   D(1,2,3,4)            -60.2973         estimate D2E/DX2                !
 ! D17   D(1,2,3,9)           -178.1627         estimate D2E/DX2                !
 ! D18   D(1,2,3,18)            60.0724         estimate D2E/DX2                !
 ! D19   D(8,2,3,4)            176.6071         estimate D2E/DX2                !
 ! D20   D(8,2,3,9)             58.7417         estimate D2E/DX2                !
 ! D21   D(8,2,3,18)           -63.0232         estimate D2E/DX2                !
 ! D22   D(17,2,3,4)            59.7081         estimate D2E/DX2                !
 ! D23   D(17,2,3,9)           -58.1574         estimate D2E/DX2                !
 ! D24   D(17,2,3,18)         -179.9222         estimate D2E/DX2                !
 ! D25   D(1,2,8,24)           -38.8358         estimate D2E/DX2                !
 ! D26   D(3,2,8,24)            83.3389         estimate D2E/DX2                !
 ! D27   D(17,2,8,24)         -158.692          estimate D2E/DX2                !
 ! D28   D(2,3,4,5)             69.239          estimate D2E/DX2                !
 ! D29   D(2,3,4,10)          -172.5272         estimate D2E/DX2                !
 ! D30   D(2,3,4,19)           -50.7749         estimate D2E/DX2                !
 ! D31   D(9,3,4,5)           -170.9923         estimate D2E/DX2                !
 ! D32   D(9,3,4,10)           -52.7584         estimate D2E/DX2                !
 ! D33   D(9,3,4,19)            68.9939         estimate D2E/DX2                !
 ! D34   D(18,3,4,5)           -51.2027         estimate D2E/DX2                !
 ! D35   D(18,3,4,10)           67.0312         estimate D2E/DX2                !
 ! D36   D(18,3,4,19)         -171.2166         estimate D2E/DX2                !
 ! D37   D(2,3,9,14)           -51.6923         estimate D2E/DX2                !
 ! D38   D(4,3,9,14)          -170.938          estimate D2E/DX2                !
 ! D39   D(18,3,9,14)           69.7244         estimate D2E/DX2                !
 ! D40   D(3,4,5,6)           -160.8844         estimate D2E/DX2                !
 ! D41   D(3,4,5,11)           -39.7311         estimate D2E/DX2                !
 ! D42   D(3,4,5,20)            78.6232         estimate D2E/DX2                !
 ! D43   D(10,4,5,6)            77.7917         estimate D2E/DX2                !
 ! D44   D(10,4,5,11)         -161.055          estimate D2E/DX2                !
 ! D45   D(10,4,5,20)          -42.7007         estimate D2E/DX2                !
 ! D46   D(19,4,5,6)           -41.6767         estimate D2E/DX2                !
 ! D47   D(19,4,5,11)           79.4766         estimate D2E/DX2                !
 ! D48   D(19,4,5,20)         -162.1691         estimate D2E/DX2                !
 ! D49   D(3,4,10,15)           52.8788         estimate D2E/DX2                !
 ! D50   D(5,4,10,15)          172.9647         estimate D2E/DX2                !
 ! D51   D(19,4,10,15)         -67.8532         estimate D2E/DX2                !
 ! D52   D(4,5,6,12)            65.0983         estimate D2E/DX2                !
 ! D53   D(4,5,6,21)          -171.9238         estimate D2E/DX2                !
 ! D54   D(4,5,6,22)           -53.2067         estimate D2E/DX2                !
 ! D55   D(11,5,6,12)          -58.5117         estimate D2E/DX2                !
 ! D56   D(11,5,6,21)           64.4662         estimate D2E/DX2                !
 ! D57   D(11,5,6,22)         -176.8167         estimate D2E/DX2                !
 ! D58   D(20,5,6,12)         -175.4459         estimate D2E/DX2                !
 ! D59   D(20,5,6,21)          -52.4681         estimate D2E/DX2                !
 ! D60   D(20,5,6,22)           66.249          estimate D2E/DX2                !
 ! D61   D(4,5,11,1)             6.1481         estimate D2E/DX2                !
 ! D62   D(6,5,11,1)           130.2463         estimate D2E/DX2                !
 ! D63   D(20,5,11,1)         -111.9403         estimate D2E/DX2                !
 ! D64   D(5,6,12,16)           68.9425         estimate D2E/DX2                !
 ! D65   D(21,6,12,16)         -53.1441         estimate D2E/DX2                !
 ! D66   D(22,6,12,16)        -171.6992         estimate D2E/DX2                !
 --------------------------------------------------------------------------------
 Trust Radius=3.00D-01 FncErr=1.00D-07 GrdErr=1.00D-06
 Number of steps in this run=    142 maximum allowed number of steps=    144.
 GradGradGradGradGradGradGradGradGradGradGradGradGradGradGradGradGradGrad

                          Input orientation:                          
 ---------------------------------------------------------------------
 Center     Atomic      Atomic             Coordinates (Angstroms)
 Number     Number       Type             X           Y           Z
 ---------------------------------------------------------------------
      1          6           0       -0.821068    0.376822   -1.435986
      2          6           0       -1.514621   -0.345043   -0.271363
      3          6           0       -0.827449    0.014615    1.035663
      4          6           0        0.625525   -0.416120    0.979693
      5          6           0        1.381078    0.449581   -0.009945
      6          6           0        2.685380   -0.186997   -0.468496
      7          8           0       -1.298559    1.667824   -1.605518
      8          8           0       -2.888109   -0.024342   -0.215648
      9          8           0       -1.426990   -0.673783    2.110276
     10          8           0        1.265587   -0.259804    2.226038
     11          8           0        0.600558    0.725236   -1.182593
     12          8           0        2.441495   -1.368772   -1.201912
     13          1           0       -0.862250   -0.196159   -2.365587
     14          1           0       -2.378504   -0.521605    2.070383
     15          1           0        0.732237   -0.714535    2.888145
     16          1           0        2.034425   -1.116982   -2.037549
     17          1           0       -1.447999   -1.426482   -0.413208
     18          1           0       -0.884517    1.101166    1.198593
     19          1           0        0.665222   -1.466607    0.661208
     20          1           0        1.597411    1.403791    0.484253
     21          1           0        3.254701    0.533815   -1.062695
     22          1           0        3.278136   -0.460703    0.405787
     23          1           0       -0.490277    2.172632   -1.443144
     24          1           0       -2.975369    0.914612   -0.430350
 ---------------------------------------------------------------------
                    Distance matrix (angstroms):
                    1          2          3          4          5
     1  C    0.000000
     2  C    1.535725   0.000000
     3  C    2.498056   1.519828   0.000000
     4  C    2.925217   2.480004   1.516509   0.000000
     5  C    2.624564   3.014107   2.481951   1.516470   0.000000
     6  C    3.680911   4.207594   3.826632   2.528389   1.522072
     7  O    1.386876   2.424518   3.151330   3.837739   3.348197
     8  O    2.433684   1.411532   2.411144   3.732017   4.300334
     9  O    3.747918   2.405817   1.410012   2.357419   3.693580
    10  O    4.262610   3.738159   2.423448   1.409784   2.348656
    11  O    1.485470   2.539649   2.732187   2.445158   1.435375
    12  O    3.707588   4.191038   4.196010   2.994110   2.419024
    13  H    1.092777   2.198529   3.407952   3.667800   3.316406
    14  H    3.940482   2.502247   1.940090   3.197643   4.405159
    15  H    4.722491   3.894533   2.529025   1.934587   3.189841
    16  H    3.278287   4.038692   4.349191   3.402933   2.644269
    17  H    2.165877   1.092735   2.135666   2.694533   3.418466
    18  H    2.733076   2.156229   1.100180   2.151813   2.649160
    19  H    3.163149   2.622844   2.135955   1.098422   2.152829
    20  H    3.254385   3.648852   2.848475   2.121815   1.096152
    21  H    4.095838   4.913759   4.619158   3.462122   2.150777
    22  H    4.571329   4.841738   4.180730   2.714351   2.144826
    23  H    1.826036   2.959905   3.303817   3.717094   2.919749
    24  H    2.437526   1.935405   2.751863   4.089683   4.401321
                    6          7          8          9         10
     6  C    0.000000
     7  O    4.539268   0.000000
     8  O    5.581592   2.705889   0.000000
     9  O    4.878382   4.393944   2.822510   0.000000
    10  O    3.046576   4.997141   4.823947   2.726674   0.000000
    11  O    2.385076   2.161940   3.696978   4.112322   3.609894
    12  O    1.412080   4.834441   5.584343   5.139920   3.789909
    13  H    4.023023   2.059734   2.959031   4.536563   5.061103
    14  H    5.674574   4.412724   2.394349   0.964432   3.656797
    15  H    3.919197   5.476566   4.818382   2.295431   0.964172
    16  H    1.936632   4.364697   5.361392   5.420542   4.416338
    17  H    4.315577   3.319437   2.019639   2.633433   3.961099
    18  H    4.145204   2.890600   2.698375   2.067822   2.744236
    19  H    2.644744   4.338103   3.933849   2.665655   2.065310
    20  H    2.149887   3.580991   4.759130   4.013386   2.431352
    21  H    1.093969   4.723644   6.226005   5.783102   3.924560
    22  H    1.091167   5.433425   6.212823   5.008882   2.721034
    23  H    4.074627   0.966704   3.476067   4.648258   4.739483
    24  H    5.767068   2.181752   0.967133   3.372722   5.140171
                   11         12         13         14         15
    11  O    0.000000
    12  O    2.788242   0.000000
    13  H    2.094815   3.693764   0.000000
    14  H    4.583806   5.887104   4.699231   0.000000
    15  H    4.319860   4.480865   5.514780   3.222214   0.000000
    16  H    2.486100   0.963013   3.057164   6.058343   5.110785
    17  H    3.068946   3.969074   2.380878   2.802297   4.019854
    18  H    2.831399   4.788045   3.793010   2.371793   2.960616
    19  H    2.864954   2.576031   3.620593   3.484691   2.351457
    20  H    2.057311   3.353019   4.090399   4.693704   3.318814
    21  H    2.663737   2.073770   4.379461   6.531699   4.850808
    22  H    3.331490   2.027129   4.989318   5.896793   3.564847
    23  H    1.831055   4.603805   2.569131   4.813438   5.346993
    24  H    3.659096   5.928876   3.073146   2.944933   5.235730
                   16         17         18         19         20
    16  H    0.000000
    17  H    3.855068   0.000000
    18  H    4.890094   3.050315   0.000000
    19  H    3.046349   2.371009   3.046955   0.000000
    20  H    3.592320   4.253282   2.600352   3.023156   0.000000
    21  H    2.272563   5.136145   4.750625   3.698504   2.428274
    22  H    2.819115   4.892835   4.516155   2.811477   2.511440
    23  H    4.189152   3.864146   2.877888   4.359763   2.943538
    24  H    5.639902   2.795331   2.657051   4.485042   4.688935
                   21         22         23         24
    21  H    0.000000
    22  H    1.773712   0.000000
    23  H    4.105523   4.955193   0.000000
    24  H    6.273646   6.457317   2.963790   0.000000
 Symmetry turned off by external request.
 Stoichiometry    C6H12O6
 Framework group  C1[X(C6H12O6)]
 Deg. of freedom    66
 Full point group                 C1      NOp   1
 Rotational constants (GHZ):      1.1994115      0.8202670      0.5735363
 Standard basis: 6-311+G(2df,p) (5D, 7F)
 Integral buffers will be    131072 words long.
 Raffenetti 2 integral format.
 Two-electron integral symmetry is turned off.
   480 basis functions,   720 primitive gaussians,   540 cartesian basis functions
    48 alpha electrons       48 beta electrons
       nuclear repulsion energy       839.1095567157 Hartrees.
 NAtoms=   24 NActive=   24 NUniq=   24 SFac= 1.00D+00 NAtFMM=   50 NAOKFM=F Big=F
 ------------------------------------------------------------------------------
 Polarizable Continuum Model (PCM)
 =================================
 Model                : PCM.
 Atomic radii         : UFF (Universal Force Field).
 Polarization charges : Total charges.
 Charge compensation  : None.
 Solution method      : Matrix inversion.
 Cavity type          : Scaled VdW (van der Waals Surface) (Alpha=1.100).
 Cavity algorithm     : GePol (No added spheres)
                        Default sphere list used, NSphG=   24.
                        Lebedev-Laikov grids with approx.  5.0 points / Ang**2.
                        Smoothing algorithm: Karplus/York (Gamma=1.0000).
                        Polarization charges: spherical gaussians, with
                                              point-specific exponents (IZeta= 3).
                        Self-potential: point-specific (ISelfS= 7).
                        Self-field    : sphere-specific E.n sum rule (ISelfD= 2).
 1st derivatives      : Analytical E(r).r(x)/FMM algorithm (CHGder, D1EAlg=3).
                        Cavity 1st derivative terms included.
 Solvent              : Ethanol, Eps=  24.852000 Eps(inf)=   1.852593
 ------------------------------------------------------------------------------
 One-electron integrals computed using PRISM.
 NBasis=   480 RedAO= T  NBF=   480
 NBsUse=   480 1.00D-06 NBFU=   480
 Harris functional with IExCor= 1009 diagonalized for initial guess.
 ExpMin= 4.38D-02 ExpMax= 8.59D+03 ExpMxC= 1.30D+03 IAcc=3 IRadAn=         5 AccDes= 0.00D+00
 HarFok:  IExCor= 1009 AccDes= 0.00D+00 IRadAn=         5 IDoV= 1
 ScaDFX=  1.000000  1.000000  1.000000  1.000000
 FoFCou: FMM=F IPFlag=           0 FMFlag=      100000 FMFlg1=           0
         NFxFlg=           0 DoJE=T BraDBF=F KetDBF=T FulRan=T
         Omega=  0.000000  0.000000  1.000000  0.000000  0.000000 ICntrl=     500 IOpCl=  0
         NMat0=    1 NMatS0=    1 NMatT0=    0 NMatD0=    1 NMtDS0=    0 NMtDT0=    0
         I1Cent=           4 NGrid=           0.
 Symmetry not used in FoFCou.
 Requested convergence on RMS density matrix=1.00D-08 within 128 cycles.
 Requested convergence on MAX density matrix=1.00D-06.
 Requested convergence on             energy=1.00D-06.
 No special actions if energy rises.
 Error on total polarization charges =  0.01162
 SCF Done:  E(RM062X) =  -687.163584455     A.U. after   12 cycles
             Convg  =    0.6669D-08             -V/T =  2.0034
 QCSCF skips out because SCF is already converged.

 **********************************************************************

            Population analysis using the SCF density.

 **********************************************************************

 Alpha  occ. eigenvalues --  -19.64802 -19.64371 -19.63979 -19.63885 -19.63512
 Alpha  occ. eigenvalues --  -19.63086 -10.66344 -10.60614 -10.60271 -10.59836
 Alpha  occ. eigenvalues --  -10.59785 -10.58688  -1.22195  -1.18253  -1.16942
 Alpha  occ. eigenvalues --   -1.15668  -1.14777  -1.12399  -0.89852  -0.87840
 Alpha  occ. eigenvalues --   -0.79759  -0.74700  -0.72315  -0.68233  -0.64702
 Alpha  occ. eigenvalues --   -0.62996  -0.59838  -0.58940  -0.58483  -0.57330
 Alpha  occ. eigenvalues --   -0.56527  -0.55110  -0.52177  -0.51219  -0.49570
 Alpha  occ. eigenvalues --   -0.49221  -0.46970  -0.46225  -0.45055  -0.43875
 Alpha  occ. eigenvalues --   -0.42408  -0.40919  -0.40193  -0.38837  -0.37293
 Alpha  occ. eigenvalues --   -0.35808  -0.34755  -0.34264
 Alpha virt. eigenvalues --    0.01249   0.01569   0.02101   0.02655   0.04357
 Alpha virt. eigenvalues --    0.04762   0.05038   0.05296   0.05965   0.07901
 Alpha virt. eigenvalues --    0.08047   0.09001   0.09386   0.10152   0.10984
 Alpha virt. eigenvalues --    0.11085   0.11366   0.12703   0.13618   0.14107
 Alpha virt. eigenvalues --    0.14860   0.15707   0.16510   0.17301   0.17546
 Alpha virt. eigenvalues --    0.18504   0.18767   0.19704   0.19977   0.20837
 Alpha virt. eigenvalues --    0.21337   0.21649   0.22323   0.23023   0.23780
 Alpha virt. eigenvalues --    0.23951   0.24487   0.24646   0.25861   0.26313
 Alpha virt. eigenvalues --    0.26962   0.27434   0.27928   0.28633   0.28639
 Alpha virt. eigenvalues --    0.28819   0.29627   0.30354   0.30415   0.31333
 Alpha virt. eigenvalues --    0.31842   0.32222   0.32621   0.33220   0.34070
 Alpha virt. eigenvalues --    0.34272   0.34995   0.35173   0.35447   0.36753
 Alpha virt. eigenvalues --    0.37454   0.37860   0.38842   0.39556   0.40013
 Alpha virt. eigenvalues --    0.41392   0.42475   0.43089   0.43909   0.44133
 Alpha virt. eigenvalues --    0.44916   0.46163   0.49851   0.52553   0.53143
 Alpha virt. eigenvalues --    0.54873   0.56622   0.57197   0.58262   0.58501
 Alpha virt. eigenvalues --    0.59332   0.60222   0.61016   0.62979   0.63187
 Alpha virt. eigenvalues --    0.63530   0.64673   0.65974   0.66850   0.68384
 Alpha virt. eigenvalues --    0.68970   0.69452   0.70219   0.71031   0.73994
 Alpha virt. eigenvalues --    0.74373   0.75253   0.76336   0.76856   0.77574
 Alpha virt. eigenvalues --    0.78000   0.79359   0.81819   0.84051   0.86637
 Alpha virt. eigenvalues --    0.88734   0.91529   0.93157   0.94351   0.97560
 Alpha virt. eigenvalues --    0.98173   0.99215   1.00144   1.03074   1.04673
 Alpha virt. eigenvalues --    1.05456   1.06496   1.08362   1.09433   1.09851
 Alpha virt. eigenvalues --    1.11492   1.12161   1.12557   1.13169   1.14975
 Alpha virt. eigenvalues --    1.15760   1.16240   1.16638   1.17736   1.18867
 Alpha virt. eigenvalues --    1.20013   1.21549   1.22381   1.24928   1.25421
 Alpha virt. eigenvalues --    1.27023   1.27274   1.29033   1.30859   1.31759
 Alpha virt. eigenvalues --    1.33402   1.33815   1.34483   1.35390   1.36630
 Alpha virt. eigenvalues --    1.37649   1.39804   1.41407   1.42060   1.43783
 Alpha virt. eigenvalues --    1.44899   1.45129   1.47215   1.47874   1.49563
 Alpha virt. eigenvalues --    1.49712   1.51747   1.52871   1.54367   1.55155
 Alpha virt. eigenvalues --    1.57986   1.60428   1.63069   1.63854   1.66689
 Alpha virt. eigenvalues --    1.67742   1.69369   1.69930   1.73787   1.74733
 Alpha virt. eigenvalues --    1.75276   1.77621   1.78947   1.80183   1.80968
 Alpha virt. eigenvalues --    1.81902   1.84172   1.85773   1.90159   1.91464
 Alpha virt. eigenvalues --    1.92655   1.93236   1.94912   1.96439   1.99358
 Alpha virt. eigenvalues --    2.00532   2.02234   2.05880   2.08752   2.10576
 Alpha virt. eigenvalues --    2.12138   2.13975   2.15456   2.16769   2.17396
 Alpha virt. eigenvalues --    2.18019   2.19235   2.19864   2.20976   2.22138
 Alpha virt. eigenvalues --    2.23539   2.25216   2.28296   2.28325   2.31228
 Alpha virt. eigenvalues --    2.32168   2.32803   2.34435   2.35360   2.37081
 Alpha virt. eigenvalues --    2.38830   2.40185   2.42010   2.44135   2.46549
 Alpha virt. eigenvalues --    2.47296   2.47863   2.49675   2.50722   2.54088
 Alpha virt. eigenvalues --    2.54476   2.55596   2.58222   2.61141   2.61741
 Alpha virt. eigenvalues --    2.63502   2.65024   2.66080   2.69570   2.70116
 Alpha virt. eigenvalues --    2.71705   2.73508   2.74482   2.80509   2.82435
 Alpha virt. eigenvalues --    2.85996   2.88032   2.91761   2.93070   2.96324
 Alpha virt. eigenvalues --    2.97253   2.99204   2.99780   3.01096   3.01935
 Alpha virt. eigenvalues --    3.05351   3.06398   3.07376   3.07834   3.12649
 Alpha virt. eigenvalues --    3.13890   3.16670   3.19383   3.22907   3.24130
 Alpha virt. eigenvalues --    3.25106   3.26397   3.28964   3.29504   3.32040
 Alpha virt. eigenvalues --    3.33145   3.35473   3.36575   3.39851   3.41360
 Alpha virt. eigenvalues --    3.42160   3.42886   3.44537   3.48809   3.49236
 Alpha virt. eigenvalues --    3.50034   3.51758   3.52814   3.53573   3.54648
 Alpha virt. eigenvalues --    3.56238   3.56963   3.59718   3.61576   3.61720
 Alpha virt. eigenvalues --    3.65574   3.67860   3.68017   3.70022   3.72133
 Alpha virt. eigenvalues --    3.73897   3.74877   3.75938   3.77160   3.79092
 Alpha virt. eigenvalues --    3.80217   3.83572   3.84328   3.85237   3.87310
 Alpha virt. eigenvalues --    3.87659   3.89736   3.94408   3.96853   3.97901
 Alpha virt. eigenvalues --    4.00220   4.02828   4.04505   4.07186   4.09710
 Alpha virt. eigenvalues --    4.10901   4.14002   4.15981   4.18316   4.20185
 Alpha virt. eigenvalues --    4.22455   4.27188   4.30037   4.34501   4.37319
 Alpha virt. eigenvalues --    4.40806   4.43631   4.47351   4.49396   4.56381
 Alpha virt. eigenvalues --    4.58330   4.61308   4.65254   4.66757   4.77255
 Alpha virt. eigenvalues --    4.92701   4.97226   5.04828   5.14400   5.14801
 Alpha virt. eigenvalues --    5.16856   5.17618   5.18289   5.18589   5.18894
 Alpha virt. eigenvalues --    5.19326   5.20251   5.20838   5.22920   5.23046
 Alpha virt. eigenvalues --    5.24190   5.25125   5.25877   5.26803   5.27615
 Alpha virt. eigenvalues --    5.28759   5.30312   5.32843   5.33396   5.35009
 Alpha virt. eigenvalues --    5.36933   5.37543   5.38189   5.38822   5.39484
 Alpha virt. eigenvalues --    5.41041   5.41691   5.43814   5.46268   5.48047
 Alpha virt. eigenvalues --    5.48432   5.49478   5.51277   5.53491   5.54570
 Alpha virt. eigenvalues --    5.65682   5.73038   5.75726   5.78303   5.78780
 Alpha virt. eigenvalues --    5.81010   5.82020   5.85611   5.88021   5.90268
 Alpha virt. eigenvalues --    5.92172   5.98488   6.11777   6.25820   6.30862
 Alpha virt. eigenvalues --    6.32701   6.34413   6.35151   6.35678   6.52962
 Alpha virt. eigenvalues --    6.56720   6.58388   6.64817   6.65892   6.72468
 Alpha virt. eigenvalues --    6.91545   6.94530   6.95027   6.96969   6.99229
 Alpha virt. eigenvalues --    7.06617   7.14813   7.16433   7.17327   7.18759
 Alpha virt. eigenvalues --    7.20651   7.22511   7.24662   7.26206   7.28369
 Alpha virt. eigenvalues --    7.29663   7.32207   7.35002   7.41123   7.44424
 Alpha virt. eigenvalues --    7.50471   7.50968   7.54960   7.59582   7.60986
 Alpha virt. eigenvalues --    7.61615   7.64744   7.65241   7.71432   7.84591
 Alpha virt. eigenvalues --   24.34455  24.40011  24.47113  24.50023  24.55740
 Alpha virt. eigenvalues --   24.60524  50.10223  50.10716  50.13312  50.15056
 Alpha virt. eigenvalues --   50.18418  50.22900
          Condensed to atoms (all electrons):
              1          2          3          4          5          6
     1  C    6.138328  -0.857745  -0.163988   0.637048  -0.838309   0.159528
     2  C   -0.857745   7.220126  -0.186786  -0.961357   0.576886  -0.024238
     3  C   -0.163988  -0.186786   7.160467  -0.890472  -0.092020  -0.139212
     4  C    0.637048  -0.961357  -0.890472   8.057673  -1.137872  -0.054428
     5  C   -0.838309   0.576886  -0.092020  -1.137872   7.734058  -0.394820
     6  C    0.159528  -0.024238  -0.139212  -0.054428  -0.394820   5.874296
     7  O    0.228730  -0.056082   0.011439  -0.059276   0.012418  -0.000514
     8  O   -0.014000   0.225349  -0.203488   0.058911  -0.014099   0.002682
     9  O    0.042252  -0.114833   0.353552  -0.199332   0.007157   0.001278
    10  O   -0.000721  -0.001038  -0.006482   0.208700  -0.082130  -0.025816
    11  O    0.179293  -0.069130  -0.000510  -0.080212   0.196461  -0.146250
    12  O    0.006286  -0.000760  -0.023687   0.058743  -0.019836   0.097087
    13  H    0.459116  -0.042150   0.021654  -0.040692   0.023702   0.002964
    14  H    0.006792  -0.021082  -0.014672   0.009915   0.002385   0.001307
    15  H    0.002661   0.016473  -0.070864   0.038737  -0.012003   0.009642
    16  H   -0.001856   0.008048   0.002235  -0.021998  -0.019349   0.031023
    17  H   -0.081605   0.493079  -0.027117  -0.021762   0.014008  -0.003158
    18  H    0.004053  -0.014888   0.485483  -0.100690   0.016102  -0.006856
    19  H   -0.021735   0.019562   0.061029   0.397759  -0.069090  -0.017098
    20  H   -0.001188  -0.002206  -0.004982   0.015649   0.388157  -0.038759
    21  H   -0.000194  -0.001148   0.001369   0.021470   0.013003   0.361905
    22  H   -0.002417   0.004521   0.003618   0.007955  -0.128146   0.491883
    23  H    0.024086  -0.016712   0.022448   0.009876  -0.028796  -0.000526
    24  H   -0.042872   0.051304   0.012206   0.002190  -0.003019  -0.000504
              7          8          9         10         11         12
     1  C    0.228730  -0.014000   0.042252  -0.000721   0.179293   0.006286
     2  C   -0.056082   0.225349  -0.114833  -0.001038  -0.069130  -0.000760
     3  C    0.011439  -0.203488   0.353552  -0.006482  -0.000510  -0.023687
     4  C   -0.059276   0.058911  -0.199332   0.208700  -0.080212   0.058743
     5  C    0.012418  -0.014099   0.007157  -0.082130   0.196461  -0.019836
     6  C   -0.000514   0.002682   0.001278  -0.025816  -0.146250   0.097087
     7  O    8.130304  -0.015169  -0.000210   0.000198  -0.038285   0.000230
     8  O   -0.015169   8.125819   0.001275  -0.001466   0.003706  -0.000041
     9  O   -0.000210   0.001275   8.099201   0.005611   0.002171   0.000044
    10  O    0.000198  -0.001466   0.005611   8.094173  -0.000304  -0.002181
    11  O   -0.038285   0.003706   0.002171  -0.000304   8.314622   0.018892
    12  O    0.000230  -0.000041   0.000044  -0.002181   0.018892   8.051092
    13  H   -0.050928  -0.000932  -0.000409   0.000194  -0.049542  -0.003228
    14  H   -0.000125   0.014116   0.291284   0.001465   0.000155  -0.000019
    15  H   -0.000027   0.000125   0.012599   0.290013   0.000338   0.000397
    16  H   -0.000190  -0.000088   0.000027  -0.000219   0.009867   0.285132
    17  H    0.004484  -0.046938  -0.003753   0.000456   0.002194  -0.001623
    18  H   -0.002580  -0.003465  -0.051718  -0.005646   0.000368  -0.000382
    19  H   -0.000500   0.000149  -0.003778  -0.052812   0.005782  -0.010883
    20  H   -0.000611   0.000147  -0.001074  -0.002446  -0.052250   0.006892
    21  H    0.000022  -0.000019   0.000025  -0.000776  -0.006461  -0.043670
    22  H    0.000015  -0.000015  -0.000069   0.002862   0.013931  -0.050066
    23  H    0.272768   0.000271  -0.000038   0.000202  -0.004203   0.000536
    24  H    0.013553   0.262857  -0.001131  -0.000048  -0.001235   0.000020
             13         14         15         16         17         18
     1  C    0.459116   0.006792   0.002661  -0.001856  -0.081605   0.004053
     2  C   -0.042150  -0.021082   0.016473   0.008048   0.493079  -0.014888
     3  C    0.021654  -0.014672  -0.070864   0.002235  -0.027117   0.485483
     4  C   -0.040692   0.009915   0.038737  -0.021998  -0.021762  -0.100690
     5  C    0.023702   0.002385  -0.012003  -0.019349   0.014008   0.016102
     6  C    0.002964   0.001307   0.009642   0.031023  -0.003158  -0.006856
     7  O   -0.050928  -0.000125  -0.000027  -0.000190   0.004484  -0.002580
     8  O   -0.000932   0.014116   0.000125  -0.000088  -0.046938  -0.003465
     9  O   -0.000409   0.291284   0.012599   0.000027  -0.003753  -0.051718
    10  O    0.000194   0.001465   0.290013  -0.000219   0.000456  -0.005646
    11  O   -0.049542   0.000155   0.000338   0.009867   0.002194   0.000368
    12  O   -0.003228  -0.000019   0.000397   0.285132  -0.001623  -0.000382
    13  H    0.492096   0.000008  -0.000021   0.000785  -0.004138  -0.000230
    14  H    0.000008   0.380163   0.000369   0.000000  -0.000168  -0.000533
    15  H   -0.000021   0.000369   0.377528  -0.000012   0.000049   0.001584
    16  H    0.000785   0.000000  -0.000012   0.393822   0.000013   0.000024
    17  H   -0.004138  -0.000168   0.000049   0.000013   0.459603   0.003008
    18  H   -0.000230  -0.000533   0.001584   0.000024   0.003008   0.466267
    19  H    0.000184   0.000015  -0.000173   0.000597  -0.002853   0.003119
    20  H   -0.000687   0.000002   0.000535  -0.000719  -0.000169  -0.000678
    21  H   -0.000113  -0.000001   0.000016  -0.007392   0.000001  -0.000004
    22  H   -0.000005   0.000001   0.000180   0.005905  -0.000026  -0.000004
    23  H    0.000224  -0.000020  -0.000007   0.000077  -0.000394  -0.002926
    24  H   -0.000443  -0.001197   0.000000   0.000003   0.004020  -0.000217
             19         20         21         22         23         24
     1  C   -0.021735  -0.001188  -0.000194  -0.002417   0.024086  -0.042872
     2  C    0.019562  -0.002206  -0.001148   0.004521  -0.016712   0.051304
     3  C    0.061029  -0.004982   0.001369   0.003618   0.022448   0.012206
     4  C    0.397759   0.015649   0.021470   0.007955   0.009876   0.002190
     5  C   -0.069090   0.388157   0.013003  -0.128146  -0.028796  -0.003019
     6  C   -0.017098  -0.038759   0.361905   0.491883  -0.000526  -0.000504
     7  O   -0.000500  -0.000611   0.000022   0.000015   0.272768   0.013553
     8  O    0.000149   0.000147  -0.000019  -0.000015   0.000271   0.262857
     9  O   -0.003778  -0.001074   0.000025  -0.000069  -0.000038  -0.001131
    10  O   -0.052812  -0.002446  -0.000776   0.002862   0.000202  -0.000048
    11  O    0.005782  -0.052250  -0.006461   0.013931  -0.004203  -0.001235
    12  O   -0.010883   0.006892  -0.043670  -0.050066   0.000536   0.000020
    13  H    0.000184  -0.000687  -0.000113  -0.000005   0.000224  -0.000443
    14  H    0.000015   0.000002  -0.000001   0.000001  -0.000020  -0.001197
    15  H   -0.000173   0.000535   0.000016   0.000180  -0.000007   0.000000
    16  H    0.000597  -0.000719  -0.007392   0.005905   0.000077   0.000003
    17  H   -0.002853  -0.000169   0.000001  -0.000026  -0.000394   0.004020
    18  H    0.003119  -0.000678  -0.000004  -0.000004  -0.002926  -0.000217
    19  H    0.473714   0.004035  -0.000423   0.001152   0.000011  -0.000134
    20  H    0.004035   0.488105  -0.005584   0.001120   0.001624  -0.000008
    21  H   -0.000423  -0.005584   0.509966  -0.027247   0.000053   0.000003
    22  H    0.001152   0.001120  -0.027247   0.478591   0.000054   0.000000
    23  H    0.000011   0.001624   0.000053   0.000054   0.361578   0.000527
    24  H   -0.000134  -0.000008   0.000003   0.000000   0.000527   0.378040
 Mulliken atomic charges:
              1
     1  C    0.138459
     2  C   -0.245193
     3  C   -0.311220
     4  C    0.043464
     5  C   -0.144848
     6  C   -0.181416
     7  O   -0.449663
     8  O   -0.395687
     9  O   -0.440132
    10  O   -0.421790
    11  O   -0.299397
    12  O   -0.368974
    13  H    0.192590
    14  H    0.329839
    15  H    0.331858
    16  H    0.314265
    17  H    0.212790
    18  H    0.210808
    19  H    0.212374
    20  H    0.205094
    21  H    0.185201
    22  H    0.196205
    23  H    0.359288
    24  H    0.326085
 Sum of Mulliken atomic charges =   0.00000
 Mulliken charges with hydrogens summed into heavy atoms:
              1
     1  C    0.331050
     2  C   -0.032403
     3  C   -0.100412
     4  C    0.255839
     5  C    0.060246
     6  C    0.199990
     7  O   -0.090375
     8  O   -0.069602
     9  O   -0.110293
    10  O   -0.089932
    11  O   -0.299397
    12  O   -0.054710
 Sum of Mulliken charges with hydrogens summed into heavy atoms =   0.00000
 Electronic spatial extent (au):  <R**2>=           2039.9322
 Charge=              0.0000 electrons
 Dipole moment (field-independent basis, Debye):
    X=             -0.4599    Y=              1.8200    Z=             -0.9408  Tot=              2.0997
 Quadrupole moment (field-independent basis, Debye-Ang):
   XX=            -77.7704   YY=            -72.4396   ZZ=            -72.1255
   XY=              3.7731   XZ=             -4.8203   YZ=              1.2782
 Traceless Quadrupole moment (field-independent basis, Debye-Ang):
   XX=             -3.6585   YY=              1.6722   ZZ=              1.9863
   XY=              3.7731   XZ=             -4.8203   YZ=              1.2782
 Octapole moment (field-independent basis, Debye-Ang**2):
  XXX=             -5.9973  YYY=             15.1267  ZZZ=             -8.4275  XYY=            -10.1429
  XXY=             22.6258  XXZ=             10.1687  XZZ=             -3.7091  YZZ=            -12.4970
  YYZ=              3.8786  XYZ=            -11.3374
 Hexadecapole moment (field-independent basis, Debye-Ang**3):
 XXXX=          -1368.7247 YYYY=           -330.3714 ZZZZ=           -756.3702 XXXY=             91.4651
 XXXZ=            -14.1239 YYYX=            102.3980 YYYZ=             73.4295 ZZZX=             -8.7425
 ZZZY=             90.4925 XXYY=           -304.4200 XXZZ=           -359.3654 YYZZ=           -196.4847
 XXYZ=             13.4236 YYXZ=             13.3003 ZZXY=             28.1820
 N-N= 8.391095567157D+02 E-N=-3.292079608946D+03  KE= 6.848032643671D+02
 D1PCM: PCM CHGder 1st derivatives, ID1Alg=3 FixD1E=F DoIter=F DoCFld=F I1PDM=0.
 Calling FoFJK, ICntrl=      2127 FMM=F ISym2X=0 I1Cent= 0 IOpClX= 0 NMat=1 NMatS=1 NMatT=0.
 -------------------------------------------------------------------
 Center     Atomic                   Forces (Hartrees/Bohr)
 Number     Number              X              Y              Z
 -------------------------------------------------------------------
      1        6           0.039892957    0.012187406    0.013919986
      2        6           0.004251942    0.004072987    0.000472859
      3        6          -0.000262267   -0.000851760    0.001418863
      4        6          -0.000347980   -0.001110451    0.000913008
      5        6          -0.008049642   -0.003307730   -0.003944986
      6        6          -0.002660923    0.000162021    0.000237818
      7        8          -0.022802656    0.004335657   -0.003507074
      8        8           0.002052645    0.000325403   -0.003447434
      9        8          -0.000642831   -0.000365072    0.001040660
     10        8           0.000070696   -0.000123877    0.001098067
     11        8          -0.004642277   -0.025695483   -0.006918216
     12        8           0.001952895   -0.000515843   -0.000604581
     13        1           0.000755147    0.001399592    0.000967796
     14        1          -0.000028890    0.000006649    0.000007855
     15        1          -0.000050405   -0.000013504    0.000024703
     16        1          -0.001130906    0.000096910    0.000613426
     17        1           0.000227749    0.000377554   -0.000348153
     18        1           0.000125020   -0.000039404    0.000134690
     19        1          -0.000055999   -0.000127773    0.000190360
     20        1          -0.000870754   -0.000050984   -0.000692885
     21        1          -0.000293815    0.000083175    0.000027763
     22        1          -0.000321804    0.000229552    0.000135850
     23        1          -0.007051958    0.008714038   -0.002467501
     24        1          -0.000115940    0.000210937    0.000727124
 -------------------------------------------------------------------
 Cartesian Forces:  Max     0.039892957 RMS     0.006987809

 GradGradGradGradGradGradGradGradGradGradGradGradGradGradGradGradGradGrad
 Berny optimization.
 Internal  Forces:  Max     0.029045205 RMS     0.005508581
 Search for a local minimum.
 Step number   1 out of a maximum of  142
 All quantities printed in internal units (Hartrees-Bohrs-Radians)
 Mixed Optimization -- RFO/linear search
 Second derivative matrix not updated -- first step.
 ITU=  0
     Eigenvalues ---    0.00457   0.00474   0.00794   0.00951   0.01532
     Eigenvalues ---    0.01539   0.01559   0.01562   0.01865   0.02973
     Eigenvalues ---    0.03125   0.04524   0.04699   0.04786   0.04881
     Eigenvalues ---    0.05088   0.05109   0.05299   0.05978   0.05985
     Eigenvalues ---    0.06212   0.06710   0.07075   0.07118   0.07651
     Eigenvalues ---    0.10218   0.10786   0.11487   0.12828   0.13868
     Eigenvalues ---    0.15797   0.16000   0.16000   0.16000   0.16000
     Eigenvalues ---    0.16000   0.16620   0.17601   0.18504   0.19613
     Eigenvalues ---    0.20316   0.22063   0.27471   0.29391   0.29585
     Eigenvalues ---    0.30075   0.30168   0.33232   0.33662   0.33857
     Eigenvalues ---    0.34111   0.34358   0.34494   0.34499   0.34678
     Eigenvalues ---    0.39077   0.43676   0.43762   0.44001   0.44037
     Eigenvalues ---    0.47867   0.53967   0.54056   0.54531   0.54586
     Eigenvalues ---    0.54830
 RFO step:  Lambda=-2.35474356D-02 EMin= 4.57315542D-03
 Linear search not attempted -- first point.
 Iteration  1 RMS(Cart)=  0.08269632 RMS(Int)=  0.00774538
 Iteration  2 RMS(Cart)=  0.01016320 RMS(Int)=  0.00095202
 Iteration  3 RMS(Cart)=  0.00013953 RMS(Int)=  0.00094999
 Iteration  4 RMS(Cart)=  0.00000016 RMS(Int)=  0.00094999
 Variable       Old X    -DE/DX   Delta X   Delta X   Delta X     New X
                                 (Linear)    (Quad)   (Total)
    R1        2.90210  -0.00119   0.00000  -0.01040  -0.01032   2.89178
    R2        2.62082   0.02316   0.00000   0.04611   0.04611   2.66693
    R3        2.80713  -0.01749   0.00000  -0.05310  -0.05291   2.75422
    R4        2.06505  -0.00159   0.00000  -0.00430  -0.00430   2.06074
    R5        2.87206  -0.00434   0.00000  -0.00890  -0.00853   2.86353
    R6        2.66741  -0.00187   0.00000  -0.00406  -0.00406   2.66335
    R7        2.06497  -0.00031   0.00000  -0.00085  -0.00085   2.06412
    R8        2.86579  -0.00346   0.00000  -0.01097  -0.01168   2.85411
    R9        2.66454   0.00126   0.00000   0.00272   0.00272   2.66726
   R10        2.07904  -0.00003   0.00000  -0.00008  -0.00008   2.07896
   R11        2.86571  -0.00173   0.00000   0.00229   0.00229   2.86800
   R12        2.66410   0.00098   0.00000   0.00212   0.00212   2.66623
   R13        2.07572   0.00007   0.00000   0.00018   0.00018   2.07590
   R14        2.87630  -0.00225   0.00000  -0.00693  -0.00693   2.86937
   R15        2.71247  -0.00321   0.00000  -0.00733  -0.00724   2.70522
   R16        2.07143  -0.00053   0.00000  -0.00145  -0.00145   2.06998
   R17        2.66845   0.00020   0.00000   0.00043   0.00043   2.66887
   R18        2.06730  -0.00011   0.00000  -0.00031  -0.00031   2.06700
   R19        2.06201  -0.00012   0.00000  -0.00033  -0.00033   2.06168
   R20        1.82681  -0.00176   0.00000  -0.00312  -0.00312   1.82369
   R21        1.82762   0.00005   0.00000   0.00009   0.00009   1.82771
   R22        1.82251   0.00003   0.00000   0.00005   0.00005   1.82256
   R23        1.82202   0.00005   0.00000   0.00009   0.00009   1.82212
   R24        1.81983  -0.00003   0.00000  -0.00005  -0.00005   1.81978
    A1        1.95494  -0.01910   0.00000  -0.06180  -0.06751   1.88743
    A2        1.99664  -0.00322   0.00000  -0.00595  -0.00693   1.98971
    A3        1.96236   0.00351   0.00000  -0.02971  -0.03298   1.92938
    A4        1.70320   0.02905   0.00000   0.21311   0.21493   1.91812
    A5        1.95102  -0.00108   0.00000  -0.04363  -0.04745   1.90357
    A6        1.87985  -0.00620   0.00000  -0.04495  -0.04561   1.83424
    A7        1.91426   0.00659   0.00000   0.02380   0.02341   1.93767
    A8        1.94183  -0.00732   0.00000  -0.02565  -0.02538   1.91645
    A9        1.91688   0.00089   0.00000  -0.00031  -0.00043   1.91645
   A10        1.93076   0.00242   0.00000   0.01056   0.01017   1.94093
   A11        1.89469  -0.00429   0.00000  -0.00969  -0.00892   1.88578
   A12        1.86429   0.00156   0.00000   0.00075   0.00056   1.86485
   A13        1.91160  -0.00852   0.00000  -0.03525  -0.03444   1.87716
   A14        1.92584   0.00452   0.00000   0.01135   0.01116   1.93701
   A15        1.91518   0.00070   0.00000   0.00427   0.00395   1.91913
   A16        1.87219   0.00040   0.00000   0.00289   0.00283   1.87502
   A17        1.91312   0.00454   0.00000   0.01485   0.01439   1.92751
   A18        1.92543  -0.00171   0.00000   0.00155   0.00159   1.92702
   A19        1.91697  -0.00162   0.00000  -0.00445  -0.00475   1.91222
   A20        1.95074  -0.00060   0.00000   0.00208   0.00211   1.95286
   A21        1.89332   0.00098   0.00000  -0.00266  -0.00259   1.89073
   A22        1.86234   0.00288   0.00000   0.01147   0.01174   1.87408
   A23        1.91636  -0.00129   0.00000  -0.00654  -0.00665   1.90971
   A24        1.92406  -0.00040   0.00000   0.00000  -0.00003   1.92404
   A25        1.96579  -0.00094   0.00000  -0.00714  -0.00771   1.95807
   A26        1.95180   0.00466   0.00000   0.03353   0.03344   1.98523
   A27        1.87659  -0.00122   0.00000  -0.00338  -0.00278   1.87382
   A28        1.87567  -0.00274   0.00000  -0.00999  -0.00991   1.86575
   A29        1.90793   0.00126   0.00000   0.00042   0.00024   1.90817
   A30        1.88438  -0.00102   0.00000  -0.01422  -0.01419   1.87019
   A31        1.93745   0.00129   0.00000   0.00547   0.00547   1.94292
   A32        1.91137  -0.00096   0.00000  -0.00574  -0.00575   1.90562
   A33        1.90607  -0.00022   0.00000  -0.00065  -0.00066   1.90541
   A34        1.93821  -0.00008   0.00000   0.00044   0.00045   1.93867
   A35        1.87554  -0.00036   0.00000  -0.00039  -0.00039   1.87515
   A36        1.89417   0.00033   0.00000   0.00089   0.00089   1.89506
   A37        1.74944   0.02071   0.00000   0.11282   0.11282   1.86226
   A38        1.87508   0.00033   0.00000   0.00181   0.00181   1.87689
   A39        1.88698   0.00001   0.00000   0.00007   0.00007   1.88705
   A40        1.87933  -0.00004   0.00000  -0.00021  -0.00021   1.87912
   A41        2.23283  -0.00127   0.00000  -0.02223  -0.02233   2.21050
   A42        1.88061  -0.00038   0.00000  -0.00207  -0.00207   1.87853
    D1       -1.47247  -0.01525   0.00000  -0.15159  -0.14890  -1.62138
    D2        0.66940  -0.01256   0.00000  -0.13905  -0.13730   0.53210
    D3        2.72981  -0.01458   0.00000  -0.15412  -0.15218   2.57763
    D4        0.44494   0.00709   0.00000   0.07206   0.07254   0.51748
    D5        2.58681   0.00978   0.00000   0.08461   0.08414   2.67095
    D6       -1.63597   0.00777   0.00000   0.06954   0.06926  -1.56670
    D7        2.59644  -0.00100   0.00000  -0.01765  -0.01741   2.57903
    D8       -1.54486   0.00169   0.00000  -0.00511  -0.00581  -1.55068
    D9        0.51554  -0.00033   0.00000  -0.02018  -0.02069   0.49485
   D10        2.06043   0.00569   0.00000   0.07635   0.07446   2.13489
   D11       -0.03782   0.00099   0.00000  -0.00898  -0.00928  -0.04710
   D12       -2.00238  -0.00590   0.00000  -0.04909  -0.04690  -2.04928
   D13        0.01883  -0.00159   0.00000  -0.05464  -0.05480  -0.03597
   D14        2.08523  -0.00810   0.00000  -0.00393   0.00076   2.08599
   D15       -2.17651   0.00102   0.00000   0.02414   0.02525  -2.15126
   D16       -1.05239  -0.00468   0.00000  -0.03682  -0.03654  -1.08893
   D17       -3.10953  -0.00270   0.00000  -0.02573  -0.02572  -3.13525
   D18        1.04846  -0.00397   0.00000  -0.03788  -0.03777   1.01069
   D19        3.08238  -0.00156   0.00000  -0.02778  -0.02749   3.05489
   D20        1.02524   0.00041   0.00000  -0.01669  -0.01667   1.00857
   D21       -1.09996  -0.00086   0.00000  -0.02883  -0.02872  -1.12868
   D22        1.04210  -0.00228   0.00000  -0.02893  -0.02859   1.01352
   D23       -1.01504  -0.00031   0.00000  -0.01785  -0.01777  -1.03280
   D24       -3.14023  -0.00158   0.00000  -0.02999  -0.02982   3.11313
   D25       -0.67781  -0.00282   0.00000  -0.02259  -0.02225  -0.70006
   D26        1.45454   0.00222   0.00000  -0.00257  -0.00304   1.45150
   D27       -2.76970  -0.00069   0.00000  -0.00801  -0.00788  -2.77758
   D28        1.20845  -0.00360   0.00000  -0.03082  -0.03130   1.17715
   D29       -3.01117  -0.00144   0.00000  -0.01812  -0.01844  -3.02961
   D30       -0.88619  -0.00166   0.00000  -0.01859  -0.01888  -0.90507
   D31       -2.98438  -0.00271   0.00000  -0.03528  -0.03538  -3.01975
   D32       -0.92081  -0.00055   0.00000  -0.02258  -0.02252  -0.94333
   D33        1.20417  -0.00077   0.00000  -0.02305  -0.02296   1.18121
   D34       -0.89366  -0.00198   0.00000  -0.02336  -0.02351  -0.91716
   D35        1.16991   0.00018   0.00000  -0.01066  -0.01065   1.15927
   D36       -2.98829  -0.00004   0.00000  -0.01113  -0.01109  -2.99938
   D37       -0.90220  -0.00341   0.00000  -0.01612  -0.01574  -0.91794
   D38       -2.98343   0.00408   0.00000   0.01828   0.01786  -2.96557
   D39        1.21692  -0.00067   0.00000  -0.00225  -0.00220   1.21472
   D40       -2.80796   0.00015   0.00000   0.00329   0.00337  -2.80459
   D41       -0.69344  -0.00069   0.00000   0.00961   0.00933  -0.68411
   D42        1.37223  -0.00003   0.00000   0.00940   0.00958   1.38181
   D43        1.35772   0.00006   0.00000  -0.00363  -0.00357   1.35415
   D44       -2.81094  -0.00079   0.00000   0.00269   0.00239  -2.80855
   D45       -0.74527  -0.00012   0.00000   0.00249   0.00263  -0.74263
   D46       -0.72740  -0.00043   0.00000  -0.00673  -0.00670  -0.73409
   D47        1.38713  -0.00128   0.00000  -0.00041  -0.00074   1.38639
   D48       -2.83038  -0.00062   0.00000  -0.00061  -0.00049  -2.83088
   D49        0.92291   0.00035   0.00000  -0.00193  -0.00186   0.92105
   D50        3.01880  -0.00015   0.00000   0.00113   0.00109   3.01989
   D51       -1.18426  -0.00022   0.00000   0.00006   0.00004  -1.18422
   D52        1.13618   0.00139   0.00000   0.00742   0.00715   1.14333
   D53       -3.00064   0.00150   0.00000   0.00771   0.00743  -2.99321
   D54       -0.92863   0.00119   0.00000   0.00501   0.00474  -0.92390
   D55       -1.02122  -0.00195   0.00000  -0.02326  -0.02305  -1.04427
   D56        1.12515  -0.00184   0.00000  -0.02298  -0.02277   1.10238
   D57       -3.08603  -0.00215   0.00000  -0.02568  -0.02546  -3.11150
   D58       -3.06211   0.00011   0.00000  -0.00111  -0.00105  -3.06315
   D59       -0.91574   0.00022   0.00000  -0.00082  -0.00077  -0.91651
   D60        1.15626  -0.00009   0.00000  -0.00352  -0.00346   1.15280
   D61        0.10730  -0.00107   0.00000   0.01326   0.01475   0.12205
   D62        2.27323  -0.00113   0.00000   0.01915   0.01990   2.29313
   D63       -1.95373  -0.00164   0.00000   0.00682   0.00778  -1.94595
   D64        1.20327  -0.00095   0.00000  -0.02068  -0.02068   1.18260
   D65       -0.92754  -0.00056   0.00000  -0.01745  -0.01745  -0.94499
   D66       -2.99672  -0.00069   0.00000  -0.01855  -0.01855  -3.01527
         Item               Value     Threshold  Converged?
 Maximum Force            0.029045     0.000015     NO 
 RMS     Force            0.005509     0.000010     NO 
 Maximum Displacement     0.667769     0.000060     NO 
 RMS     Displacement     0.086015     0.000040     NO 
 Predicted change in Energy=-1.377284D-02
 GradGradGradGradGradGradGradGradGradGradGradGradGradGradGradGradGradGrad

                          Input orientation:                          
 ---------------------------------------------------------------------
 Center     Atomic      Atomic             Coordinates (Angstroms)
 Number     Number       Type             X           Y           Z
 ---------------------------------------------------------------------
      1          6           0       -0.763258    0.439893   -1.420322
      2          6           0       -1.442656   -0.315640   -0.276080
      3          6           0       -0.805465    0.026968    1.055381
      4          6           0        0.635461   -0.422183    0.999775
      5          6           0        1.394321    0.427668   -0.002842
      6          6           0        2.681643   -0.235879   -0.458981
      7          8           0       -1.475350    1.638494   -1.639382
      8          8           0       -2.822958   -0.030890   -0.269016
      9          8           0       -1.427273   -0.676605    2.109201
     10          8           0        1.279667   -0.278732    2.246803
     11          8           0        0.644021    0.735285   -1.182560
     12          8           0        2.420276   -1.417325   -1.187325
     13          1           0       -0.778062   -0.155316   -2.333938
     14          1           0       -2.377468   -0.520700    2.054377
     15          1           0        0.739469   -0.726182    2.908390
     16          1           0        2.001397   -1.162408   -2.016119
     17          1           0       -1.342258   -1.392027   -0.432270
     18          1           0       -0.863311    1.111395    1.231388
     19          1           0        0.657780   -1.472623    0.679121
     20          1           0        1.630359    1.378554    0.487028
     21          1           0        3.260157    0.474654   -1.056375
     22          1           0        3.270546   -0.514769    0.416048
     23          1           0       -0.843645    2.360036   -1.531431
     24          1           0       -2.927349    0.910493   -0.464826
 ---------------------------------------------------------------------
                    Distance matrix (angstroms):
                    1          2          3          4          5
     1  C    0.000000
     2  C    1.530262   0.000000
     3  C    2.510258   1.515316   0.000000
     4  C    2.925142   2.440846   1.510330   0.000000
     5  C    2.581578   2.945437   2.473753   1.517680   0.000000
     6  C    3.639805   4.129123   3.810814   2.519829   1.518405
     7  O    1.411278   2.382918   3.210531   3.958164   3.518433
     8  O    2.406140   1.409385   2.414053   3.704538   4.250478
     9  O    3.760986   2.412488   1.411452   2.355935   3.693445
    10  O    4.258846   3.711784   2.420891   1.410907   2.360730
    11  O    1.457470   2.506066   2.758822   2.470302   1.431542
    12  O    3.693025   4.119020   4.185823   2.993205   2.420657
    13  H    1.090499   2.168449   3.394328   3.630828   3.239310
    14  H    3.949930   2.519317   1.941424   3.193687   4.399766
    15  H    4.728178   3.882147   2.527389   1.935470   3.199292
    16  H    3.250486   3.950475   4.327493   3.392540   2.636317
    17  H    2.160421   1.092284   2.124806   2.627304   3.314296
    18  H    2.737241   2.155117   1.100140   2.156808   2.662275
    19  H    3.175646   2.581250   2.128716   1.098519   2.149109
    20  H    3.201323   3.591107   2.843071   2.120232   1.095386
    21  H    4.039992   4.832171   4.603175   3.452694   2.143242
    22  H    4.533785   4.767910   4.161261   2.700552   2.140999
    23  H    1.925034   3.015619   3.483713   4.041720   3.328531
    24  H    2.411997   1.934771   2.755728   4.076113   4.373029
                    6          7          8          9         10
     6  C    0.000000
     7  O    4.710329   0.000000
     8  O    5.511691   2.545741   0.000000
     9  O    4.865490   4.406117   2.832101   0.000000
    10  O    3.047726   5.135008   4.818953   2.739482   0.000000
    11  O    2.370365   2.348660   3.666269   4.137557   3.632190
    12  O    1.412308   4.971749   5.500637   5.120487   3.793496
    13  H    3.935926   2.046063   2.908778   4.520476   5.023213
    14  H    5.656208   4.372619   2.415891   0.964459   3.670179
    15  H    3.918115   5.583846   4.823922   2.309964   0.964222
    16  H    1.935425   4.480485   5.254246   5.386098   4.412967
    17  H    4.186785   3.264796   2.017875   2.641616   3.910415
    18  H    4.152010   2.982238   2.719604   2.070158   2.748795
    19  H    2.630747   4.427725   3.884984   2.650703   2.066337
    20  H    2.146281   3.772879   4.731826   4.025449   2.442619
    21  H    1.093807   4.911156   6.154657   5.772198   3.924399
    22  H    1.090992   5.602219   6.150955   4.996245   2.714954
    23  H    4.507391   0.965053   3.350806   4.776610   5.074110
    24  H    5.724945   2.004462   0.967182   3.375607   5.144528
                   11         12         13         14         15
    11  O    0.000000
    12  O    2.790849   0.000000
    13  H    2.034985   3.624466   0.000000
    14  H    4.602679   5.859259   4.684968   0.000000
    15  H    4.345212   4.480811   5.487330   3.238341   0.000000
    16  H    2.477606   0.962986   2.973320   6.012918   5.102307
    17  H    3.005611   3.837631   2.337545   2.830951   3.992110
    18  H    2.870653   4.798598   3.784624   2.373545   2.959379
    19  H    2.888062   2.567697   3.588240   3.465577   2.352337
    20  H    2.043081   3.353262   4.013863   4.703874   3.329654
    21  H    2.632114   2.074158   4.282084   6.515392   4.849251
    22  H    3.319159   2.026912   4.907429   5.880835   3.558485
    23  H    2.230398   5.004003   2.641083   4.848636   5.634092
    24  H    3.646988   5.876890   3.041211   2.949079   5.244315
                   16         17         18         19         20
    16  H    0.000000
    17  H    3.706930   0.000000
    18  H    4.891117   3.043727   0.000000
    19  H    3.027516   2.289506   3.048913   0.000000
    20  H    3.586070   4.166255   2.616073   3.018612   0.000000
    21  H    2.277182   5.005620   4.758391   3.684589   2.419787
    22  H    2.818796   4.771498   4.516410   2.795217   2.505977
    23  H    4.553768   3.941414   3.031939   4.672268   3.340386
    24  H    5.567402   2.795563   2.679134   4.454325   4.679510
                   21         22         23         24
    21  H    0.000000
    22  H    1.774005   0.000000
    23  H    4.541095   5.383656   0.000000
    24  H    6.230981   6.420375   2.753297   0.000000
 Symmetry turned off by external request.
 Stoichiometry    C6H12O6
 Framework group  C1[X(C6H12O6)]
 Deg. of freedom    66
 Full point group                 C1      NOp   1
 Rotational constants (GHZ):      1.1915416      0.8204116      0.5706062
 Standard basis: 6-311+G(2df,p) (5D, 7F)
 Integral buffers will be    131072 words long.
 Raffenetti 2 integral format.
 Two-electron integral symmetry is turned off.
   480 basis functions,   720 primitive gaussians,   540 cartesian basis functions
    48 alpha electrons       48 beta electrons
       nuclear repulsion energy       838.2483286741 Hartrees.
 NAtoms=   24 NActive=   24 NUniq=   24 SFac= 1.00D+00 NAtFMM=   50 NAOKFM=F Big=F
 ------------------------------------------------------------------------------
 Polarizable Continuum Model (PCM)
 =================================
 Model                : PCM.
 Atomic radii         : UFF (Universal Force Field).
 Polarization charges : Total charges.
 Charge compensation  : None.
 Solution method      : Matrix inversion.
 Cavity type          : Scaled VdW (van der Waals Surface) (Alpha=1.100).
 Cavity algorithm     : GePol (No added spheres)
                        Default sphere list used, NSphG=   24.
                        Lebedev-Laikov grids with approx.  5.0 points / Ang**2.
                        Smoothing algorithm: Karplus/York (Gamma=1.0000).
                        Polarization charges: spherical gaussians, with
                                              point-specific exponents (IZeta= 3).
                        Self-potential: point-specific (ISelfS= 7).
                        Self-field    : sphere-specific E.n sum rule (ISelfD= 2).
 1st derivatives      : Analytical E(r).r(x)/FMM algorithm (CHGder, D1EAlg=3).
                        Cavity 1st derivative terms included.
 Solvent              : Ethanol, Eps=  24.852000 Eps(inf)=   1.852593
 ------------------------------------------------------------------------------
 One-electron integrals computed using PRISM.
 NBasis=   480 RedAO= T  NBF=   480
 NBsUse=   480 1.00D-06 NBFU=   480
 Initial guess read from the read-write file.
 B after Tr=     0.000000    0.000000    0.000000
         Rot=    1.000000    0.000000    0.000000    0.000000 Ang=   0.00 deg.
 Harris functional with IExCor= 1009 diagonalized for initial guess.
 ExpMin= 4.38D-02 ExpMax= 8.59D+03 ExpMxC= 1.30D+03 IAcc=3 IRadAn=         5 AccDes= 0.00D+00
 HarFok:  IExCor= 1009 AccDes= 0.00D+00 IRadAn=         5 IDoV= 1
 ScaDFX=  1.000000  1.000000  1.000000  1.000000
 FoFCou: FMM=F IPFlag=           0 FMFlag=      100000 FMFlg1=           0
         NFxFlg=           0 DoJE=T BraDBF=F KetDBF=T FulRan=T
         Omega=  0.000000  0.000000  1.000000  0.000000  0.000000 ICntrl=     500 IOpCl=  0
         NMat0=    1 NMatS0=    1 NMatT0=    0 NMatD0=    1 NMtDS0=    0 NMtDT0=    0
         I1Cent=           4 NGrid=           0.
 Symmetry not used in FoFCou.
 Requested convergence on RMS density matrix=1.00D-08 within 128 cycles.
 Requested convergence on MAX density matrix=1.00D-06.
 Requested convergence on             energy=1.00D-06.
 No special actions if energy rises.
 Error on total polarization charges =  0.01162
 SCF Done:  E(RM062X) =  -687.172819818     A.U. after   12 cycles
             Convg  =    0.1795D-08             -V/T =  2.0035
 QCSCF skips out because SCF is already converged.
 D1PCM: PCM CHGder 1st derivatives, ID1Alg=3 FixD1E=F DoIter=F DoCFld=F I1PDM=0.
 Calling FoFJK, ICntrl=      2127 FMM=F ISym2X=0 I1Cent= 0 IOpClX= 0 NMat=1 NMatS=1 NMatT=0.
 -------------------------------------------------------------------
 Center     Atomic                   Forces (Hartrees/Bohr)
 Number     Number              X              Y              Z
 -------------------------------------------------------------------
      1        6           0.025023144    0.000643753    0.005755863
      2        6          -0.003946054    0.001724655    0.001265809
      3        6          -0.000799713   -0.000946836    0.000715102
      4        6          -0.000903555   -0.001132473    0.001219273
      5        6          -0.005101420    0.004415820    0.001020628
      6        6          -0.000636568    0.000537510   -0.000575962
      7        8           0.012681162    0.000317851    0.002301647
      8        8          -0.001915282   -0.003986174    0.002190611
      9        8          -0.000479428    0.000409453   -0.000486712
     10        8           0.001539950    0.000851146   -0.000803330
     11        8          -0.024341840   -0.003751671   -0.011293772
     12        8           0.001209907   -0.000026792   -0.000373895
     13        1          -0.001857907    0.002035774   -0.001507803
     14        1          -0.000028973   -0.000084561   -0.000266079
     15        1          -0.000201524   -0.000043266   -0.000416342
     16        1          -0.000931569   -0.000088495    0.000272029
     17        1          -0.000169913   -0.000127865   -0.000569462
     18        1           0.000888339   -0.000148012    0.000523398
     19        1          -0.000095524   -0.000118071    0.000970665
     20        1           0.000726038   -0.000455452    0.001160160
     21        1           0.000229109   -0.000224529   -0.000189869
     22        1          -0.000353453    0.000236215    0.000144020
     23        1          -0.001245993    0.000976860   -0.000908104
     24        1           0.000711066   -0.001014842   -0.000147873
 -------------------------------------------------------------------
 Cartesian Forces:  Max     0.025023144 RMS     0.004837089

 GradGradGradGradGradGradGradGradGradGradGradGradGradGradGradGradGradGrad
 Berny optimization.
 Using GEDIIS/GDIIS optimizer.
 Internal  Forces:  Max     0.027691649 RMS     0.003113150
 Search for a local minimum.
 Step number   2 out of a maximum of  142
 All quantities printed in internal units (Hartrees-Bohrs-Radians)
 Mixed Optimization -- RFO/linear search
 Update second derivatives using D2CorX and points    1    2
 DE= -9.24D-03 DEPred=-1.38D-02 R= 6.71D-01
 SS=  1.41D+00  RLast= 4.36D-01 DXNew= 5.0454D-01 1.3082D+00
 Trust test= 6.71D-01 RLast= 4.36D-01 DXMaxT set to 5.05D-01
 ITU=  1  0
 Use linear search instead of GDIIS.
     Eigenvalues ---    0.00466   0.00474   0.00793   0.00960   0.01531
     Eigenvalues ---    0.01541   0.01559   0.01562   0.01865   0.02915
     Eigenvalues ---    0.03307   0.04457   0.04722   0.04890   0.05066
     Eigenvalues ---    0.05138   0.05243   0.05370   0.05993   0.06113
     Eigenvalues ---    0.06483   0.06868   0.07032   0.07179   0.07618
     Eigenvalues ---    0.09470   0.10439   0.11503   0.12847   0.13888
     Eigenvalues ---    0.14881   0.15804   0.16000   0.16000   0.16000
     Eigenvalues ---    0.16007   0.17067   0.18016   0.18784   0.19742
     Eigenvalues ---    0.22064   0.22261   0.27530   0.29428   0.29636
     Eigenvalues ---    0.30149   0.30233   0.33662   0.33857   0.34100
     Eigenvalues ---    0.34356   0.34413   0.34498   0.34678   0.35029
     Eigenvalues ---    0.39207   0.43676   0.43767   0.44007   0.44042
     Eigenvalues ---    0.49358   0.53978   0.54054   0.54531   0.54586
     Eigenvalues ---    0.54831
 RFO step:  Lambda=-4.92721268D-03 EMin= 4.65722292D-03
 Quartic linear search produced a step of -0.14572.
 Iteration  1 RMS(Cart)=  0.04873084 RMS(Int)=  0.00103956
 Iteration  2 RMS(Cart)=  0.00148710 RMS(Int)=  0.00031581
 Iteration  3 RMS(Cart)=  0.00000098 RMS(Int)=  0.00031581
 Variable       Old X    -DE/DX   Delta X   Delta X   Delta X     New X
                                 (Linear)    (Quad)   (Total)
    R1        2.89178   0.00712   0.00150   0.01472   0.01598   2.90775
    R2        2.66693  -0.00489  -0.00672   0.00849   0.00177   2.66870
    R3        2.75422  -0.02769   0.00771  -0.09192  -0.08445   2.66977
    R4        2.06074   0.00018   0.00063  -0.00115  -0.00052   2.06022
    R5        2.86353  -0.00056   0.00124  -0.00286  -0.00129   2.86224
    R6        2.66335   0.00018   0.00059  -0.00116  -0.00057   2.66278
    R7        2.06412   0.00019   0.00012   0.00016   0.00028   2.06440
    R8        2.85411  -0.00215   0.00170  -0.00546  -0.00381   2.85030
    R9        2.66726  -0.00050  -0.00040   0.00005  -0.00035   2.66691
   R10        2.07896  -0.00011   0.00001  -0.00030  -0.00029   2.07868
   R11        2.86800   0.00058  -0.00033   0.00453   0.00449   2.87249
   R12        2.66623  -0.00038  -0.00031   0.00006  -0.00025   2.66597
   R13        2.07590  -0.00017  -0.00003  -0.00037  -0.00039   2.07551
   R14        2.86937  -0.00038   0.00101  -0.00361  -0.00260   2.86677
   R15        2.70522   0.00016   0.00106  -0.00427  -0.00329   2.70193
   R16        2.06998   0.00028   0.00021   0.00016   0.00037   2.07035
   R17        2.66887   0.00009  -0.00006   0.00034   0.00028   2.66915
   R18        2.06700   0.00008   0.00004   0.00008   0.00012   2.06712
   R19        2.06168  -0.00013   0.00005  -0.00044  -0.00040   2.06128
   R20        1.82369  -0.00019   0.00045  -0.00145  -0.00100   1.82269
   R21        1.82771  -0.00104  -0.00001  -0.00158  -0.00160   1.82611
   R22        1.82256   0.00003  -0.00001   0.00007   0.00006   1.82263
   R23        1.82212  -0.00015  -0.00001  -0.00020  -0.00021   1.82190
   R24        1.81978   0.00014   0.00001   0.00020   0.00021   1.81999
    A1        1.88743   0.00575   0.00984  -0.00404   0.00688   1.89431
    A2        1.98971   0.00596   0.00101   0.01309   0.01302   2.00273
    A3        1.92938  -0.00174   0.00481  -0.00116   0.00453   1.93391
    A4        1.91812  -0.01060  -0.03132   0.01318  -0.01769   1.90044
    A5        1.90357  -0.00012   0.00691  -0.01825  -0.01096   1.89261
    A6        1.83424   0.00021   0.00665  -0.00409   0.00252   1.83676
    A7        1.93767  -0.00349  -0.00341   0.00392   0.00016   1.93783
    A8        1.91645   0.00560   0.00370   0.01966   0.02383   1.94028
    A9        1.91645  -0.00099   0.00006  -0.00903  -0.00919   1.90726
   A10        1.94093  -0.00172  -0.00148   0.00367   0.00179   1.94272
   A11        1.88578   0.00279   0.00130  -0.00098   0.00056   1.88634
   A12        1.86485  -0.00221  -0.00008  -0.01872  -0.01875   1.84610
   A13        1.87716  -0.00102   0.00502  -0.01442  -0.00942   1.86774
   A14        1.93701   0.00046  -0.00163   0.00457   0.00270   1.93971
   A15        1.91913  -0.00002  -0.00058   0.00156   0.00118   1.92031
   A16        1.87502   0.00156  -0.00041   0.00703   0.00706   1.88208
   A17        1.92751  -0.00078  -0.00210   0.00007  -0.00243   1.92508
   A18        1.92702  -0.00019  -0.00023   0.00092   0.00070   1.92772
   A19        1.91222  -0.00229   0.00069   0.00170   0.00169   1.91391
   A20        1.95286   0.00142  -0.00031   0.00624   0.00632   1.95918
   A21        1.89073   0.00062   0.00038  -0.00222  -0.00179   1.88894
   A22        1.87408   0.00015  -0.00171  -0.00312  -0.00483   1.86925
   A23        1.90971   0.00057   0.00097  -0.00114   0.00024   1.90995
   A24        1.92404  -0.00052   0.00000  -0.00153  -0.00167   1.92237
   A25        1.95807  -0.00029   0.00112  -0.00864  -0.00730   1.95077
   A26        1.98523   0.00200  -0.00487   0.02651   0.02118   2.00642
   A27        1.87382  -0.00020   0.00040   0.00004   0.00034   1.87415
   A28        1.86575  -0.00240   0.00144  -0.01671  -0.01490   1.85085
   A29        1.90817   0.00001  -0.00004  -0.00542  -0.00551   1.90265
   A30        1.87019   0.00092   0.00207   0.00402   0.00590   1.87609
   A31        1.94292   0.00026  -0.00080   0.00297   0.00218   1.94510
   A32        1.90562   0.00009   0.00084  -0.00125  -0.00042   1.90520
   A33        1.90541  -0.00028   0.00010  -0.00193  -0.00183   1.90359
   A34        1.93867  -0.00018  -0.00007  -0.00052  -0.00059   1.93808
   A35        1.87515   0.00003   0.00006   0.00002   0.00008   1.87523
   A36        1.89506   0.00007  -0.00013   0.00065   0.00052   1.89558
   A37        1.86226   0.00315  -0.01644   0.05723   0.04079   1.90304
   A38        1.87689  -0.00113  -0.00026  -0.00517  -0.00544   1.87145
   A39        1.88705  -0.00030  -0.00001  -0.00151  -0.00152   1.88553
   A40        1.87912  -0.00080   0.00003  -0.00419  -0.00416   1.87496
   A41        2.21050  -0.00055   0.00325  -0.01677  -0.01512   2.19538
   A42        1.87853   0.00012   0.00030  -0.00014   0.00016   1.87869
    D1       -1.62138   0.00452   0.02170   0.06065   0.08221  -1.53917
    D2        0.53210   0.00385   0.02001   0.08172   0.10166   0.63376
    D3        2.57763   0.00388   0.02218   0.06522   0.08729   2.66492
    D4        0.51748  -0.00085  -0.01057   0.08342   0.07335   0.59082
    D5        2.67095  -0.00152  -0.01226   0.10448   0.09279   2.76375
    D6       -1.56670  -0.00148  -0.01009   0.08799   0.07843  -1.48828
    D7        2.57903   0.00215   0.00254   0.08605   0.08867   2.66770
    D8       -1.55068   0.00148   0.00085   0.10711   0.10812  -1.44255
    D9        0.49485   0.00151   0.00301   0.09062   0.09376   0.58861
   D10        2.13489   0.00138  -0.01085   0.02598   0.01491   2.14981
   D11       -0.04710  -0.00300   0.00135   0.00373   0.00570  -0.04140
   D12       -2.04928   0.00261   0.00683   0.01159   0.01803  -2.03125
   D13       -0.03597  -0.00097   0.00799  -0.11843  -0.10991  -0.14588
   D14        2.08599   0.00277  -0.00011  -0.10471  -0.10521   1.98078
   D15       -2.15126  -0.00245  -0.00368  -0.12186  -0.12512  -2.27638
   D16       -1.08893   0.00292   0.00532  -0.00527   0.00081  -1.08812
   D17       -3.13525   0.00139   0.00375  -0.00771  -0.00358  -3.13883
[...]
 489,-0.00047806,-0.00013178,-0.00009350,0.00015935,-0.00015108,-0.0000
 6926,0.00022369,-0.00010681,0.00025111,0.00045424,0.00141562,0.0025556
 3,0.00298437,0.00192428,0.00094127,0.00249705,0.00072274,-0.00104399,-
 0.00013669,0.00039186,-0.00004471,-0.00016581,0.00010721,0.00006552,-0
 .00020014,-0.00009105,-0.00010194,-0.00058796,0.00133844,-0.00084582,-
 0.00007023,-0.18428631,-0.02671664,-0.25125324,0.00011913,-0.00000736,
 0.00004175,-0.00002541,0.00000627,0.00002719,-0.00005909,-0.00002294,0
 .00000057,0.18142360,0.00233207,-0.00052992,0.00095408,0.00006166,0.00
 025434,-0.00015536,0.00014946,-0.00001616,-0.00017662,0.00013583,0.000
 30109,-0.00036523,-0.00013279,-0.00010892,-0.00260440,-0.02538000,-0.0
 1158636,-0.03921005,-0.00080337,0.00101365,0.00005855,-0.00041204,-0.0
 0003005,0.00018218,-0.00016169,-0.00009313,0.00020118,0.00003345,-0.00
 010200,0.00027929,-0.00191241,0.00059308,0.00032378,0.00288058,-0.0423
 6814,-0.01094634,-0.00010453,0.00001284,-0.00007809,0.00001736,-0.0000
 0316,-0.00001497,0.00005898,0.00002852,0.00001749,0.02325818,0.0581902
 4,0.00124861,-0.00019799,0.00001671,0.00026914,0.00001462,0.00008132,0
 .00036246,0.00006478,-0.00004028,0.00005222,-0.00026712,-0.00105488,-0
 .00090039,0.00008302,-0.00056118,-0.00737781,-0.00334474,-0.01270881,-
 0.00047027,0.00050053,-0.00006690,-0.00027357,0.00005541,-0.00001252,-
 0.00031310,-0.00008513,0.00018605,0.00006455,0.00024879,0.00067595,-0.
 00091561,0.00111518,0.00016861,-0.23822380,-0.04967408,-0.34203654,-0.
 00013323,0.00003128,-0.00006610,0.00002069,-0.00001795,0.00000939,0.00
 005107,0.00002878,-0.00006891,0.24590863,0.05210057,0.35329506,0.00101
 718,-0.01285241,-0.00626683,-0.04717627,-0.01266143,-0.00139161,0.0002
 8874,-0.01526792,-0.00362381,0.00049004,-0.00109100,-0.00010966,-0.000
 20417,-0.00010583,-0.00011938,0.00001960,-0.00007626,-0.00000040,-0.00
 087722,-0.00278508,0.00309100,-0.01152320,0.04264545,0.00698168,0.0004
 6480,0.00125547,0.00139010,-0.00011318,0.00034666,0.00007630,0.0005455
 4,0.00029932,0.00007158,0.00003308,0.00005983,0.00000342,0.00054047,0.
 00050851,-0.00001037,-0.00003826,0.00006872,-0.00017565,0.00001934,-0.
 00003100,0.00000025,-0.00001022,-0.00001153,0.00002289,0.06384069,0.00
 055718,-0.01489950,-0.00595345,-0.00473787,-0.29703809,-0.06100558,-0.
 00195674,-0.00551066,-0.00096264,0.00067173,-0.00025738,-0.00024472,-0
 .00017001,-0.00013173,0.00015302,-0.00000303,-0.00003835,0.00000316,-0
 .00128503,-0.00166410,0.00318822,0.00746515,-0.00974996,-0.00121885,0.
 00086341,0.00180910,0.00006325,-0.00010297,0.00029242,0.00006609,-0.00
 021107,0.00157894,-0.00003141,0.00000104,0.00003518,0.00000559,0.00022
 481,0.00058094,0.00016385,-0.00007802,-0.00012562,-0.00006336,0.000033
 06,-0.00006404,0.00001823,-0.00004165,-0.00000936,0.00000620,-0.001626
 60,0.32293462,0.00003870,0.02230729,0.00710695,0.00077373,-0.06327238,
 -0.06747249,-0.00339626,-0.03115076,-0.01008136,0.00139682,-0.00097147
 ,0.00044315,-0.00009641,0.00010339,-0.00038840,0.00002452,-0.00010212,
 0.00006855,0.00236499,0.00481736,-0.00388003,0.00146800,-0.00146176,0.
 00197935,0.00059199,0.00074669,0.00391532,-0.00037702,0.00074779,-0.00
 009552,-0.00087751,-0.00092864,0.00028745,0.00000386,0.00002598,0.0000
 1798,-0.00074519,-0.00026514,0.00077669,0.00021784,-0.00020027,-0.0002
 4798,0.00003772,-0.00011363,0.00002199,-0.00001933,0.00000786,0.000004
 02,0.00125001,0.06720603,0.07138723,-0.00034005,0.00003158,0.00025321,
 0.00086214,-0.01488327,-0.00788825,-0.05343981,0.01729760,0.00260022,-
 0.00498004,0.03222918,0.01152109,0.00162375,0.00159824,-0.00098555,0.0
 0003144,0.00010063,-0.00010881,0.00009124,0.00024284,0.00001510,0.0021
 6831,-0.00039032,0.00161005,-0.00006931,-0.02115494,0.00344367,0.00348
 528,-0.00195689,0.00075778,-0.00002277,-0.00027618,0.00035202,-0.00039
 943,-0.00026052,0.00031333,0.00010551,0.00010573,-0.00006216,0.0007637
 9,-0.00055270,-0.00050504,-0.00019938,0.00027868,-0.00027175,0.0000365
 0,-0.00000767,-0.00009892,-0.00089514,-0.00035778,-0.00252524,0.057358
 63,-0.00065653,-0.00123047,-0.00077654,0.00260814,-0.00403244,-0.00330
 668,0.01701543,-0.27004089,-0.07315018,0.00184965,-0.00980717,-0.00502
 567,-0.00053447,0.00017284,0.00052042,0.00023402,0.00016526,-0.0001037
 3,-0.00012090,-0.00062666,0.00199919,-0.00062224,0.00180168,0.00065796
 ,-0.00753452,-0.02373951,0.00824853,-0.00108096,0.00160269,0.00083363,
 -0.00005986,0.00007448,-0.00009668,-0.00003631,0.00019192,0.00004475,0
 .00009119,0.00020262,-0.00017057,0.00092599,0.00014960,0.00042622,0.00
 000132,-0.00032478,0.00002518,-0.00002436,-0.00000151,0.00001735,0.000
 18301,0.00070603,-0.00010283,-0.01321113,0.30395276,-0.00010914,-0.002
 03468,0.00061611,0.00271189,-0.02988392,-0.01009798,0.00347906,-0.0747
 6900,-0.07198433,-0.00103041,-0.00244146,-0.00102463,-0.00008041,-0.00
 100971,0.00002126,0.00000681,0.00007782,0.00001318,0.00013059,0.001168
 80,-0.00035669,0.00175076,0.00170759,0.00255143,0.00468382,0.03430346,
 0.00001041,0.00022091,0.00114323,0.00098540,0.00022527,0.00046020,-0.0
 0047413,0.00005111,0.00004987,-0.00004719,0.00002320,0.00023797,0.0000
 6386,-0.00119455,-0.00027032,0.00067785,0.00019301,0.00015697,-0.00003
 982,-0.00002447,0.00000122,0.00002374,-0.00259487,-0.00031189,-0.00451
 419,-0.00825727,0.07047582,0.08332181,-0.00061359,0.00009629,0.0001043
 0,0.00118972,0.00106560,0.00109545,-0.00539917,0.03364566,0.00649828,-
 0.05183884,0.02049040,0.00704167,0.00151428,-0.01718081,-0.00270390,0.
 00029949,-0.00073179,-0.00049902,0.00016259,0.00001430,-0.00005936,-0.
 00040535,-0.00056982,-0.00032535,0.00312200,-0.00098695,-0.00118370,-0
 .00088727,-0.01960742,-0.01378047,0.00044465,0.00136258,-0.00032717,-0
 .00023316,0.00056662,0.00021826,0.00010013,0.00002373,-0.00006301,0.00
 035454,-0.00009541,-0.00031287,-0.00024646,0.00016776,0.00092278,-0.00
 015387,0.00000671,0.00044073,-0.00032010,-0.00034047,-0.00052892,-0.00
 544357,0.00117601,0.00045466,0.05920441,-0.00007259,-0.00036995,0.0001
 5809,-0.00024569,-0.00038072,-0.00084168,0.00135271,-0.01152007,-0.000
 71684,0.01876400,-0.28644517,-0.04852926,-0.00039115,-0.01916265,-0.00
 258291,0.00101651,-0.00151833,-0.00068074,0.00010247,0.00011252,0.0001
 1559,0.00019466,0.00041772,0.00020919,-0.00059311,0.00163484,-0.000158
 16,-0.00388553,0.00085701,-0.00867483,0.00051438,0.00194565,0.00011541
 ,0.00190377,0.00156278,-0.00101880,0.00001366,-0.00004900,0.00002484,-
 0.00010687,0.00028799,0.00009408,-0.00064052,0.00013982,-0.00008426,-0
 .00029865,-0.00001334,0.00030373,0.00021585,0.00036389,0.00052250,0.00
 142033,0.00039939,0.00010083,-0.01755579,0.31240161,-0.00004231,0.0001
 5992,-0.00002258,-0.00015433,0.00036628,-0.00014446,0.00252775,-0.0031
 5157,0.00115654,0.00587228,-0.04638259,-0.05876994,-0.00183710,0.02390
 045,0.00514704,-0.00035014,-0.00026065,0.00077369,-0.00011911,-0.00014
 306,-0.00004713,0.00018024,0.00017763,0.00015596,-0.00074620,-0.000509
 23,0.00034563,-0.00884968,-0.03338783,-0.02233685,0.00039559,-0.001170
 81,0.00198085,0.00057189,-0.00055151,-0.00032719,-0.00004113,0.0000003
 9,-0.00002063,-0.00009469,0.00009835,0.00004590,-0.00031967,-0.0008793
 6,0.00106375,0.00022705,-0.00000283,-0.00051173,-0.00032810,0.00024203
 ,0.00009525,-0.00006218,-0.00006414,0.00041771,0.00108950,0.05957429,0
 .07415248,0.00208770,-0.00309504,-0.00046275,-0.00027452,0.00002304,-0
 .00016753,0.00085092,-0.00126009,-0.00064907,0.00057542,-0.01779222,-0
 .00195641,-0.05305152,0.00970739,0.00660150,0.00414288,0.02848987,0.00
 709324,-0.00021550,0.00121175,0.00015917,-0.00016738,0.00009890,0.0001
 1474,-0.00012740,0.00039529,0.00008890,0.00030632,0.00126309,-0.000653
 53,-0.00352025,-0.01701551,-0.01361254,-0.00704802,0.00498018,0.002645
 90,-0.00010645,0.00026906,0.00006627,-0.00002269,0.00004372,0.00000217
 ,-0.00005077,0.00016221,-0.00008444,-0.00027921,-0.00030943,-0.0006288
 9,0.00006254,0.00010711,-0.00000065,-0.00025708,0.00021926,0.00028588,
 -0.00117182,-0.00137377,0.00211313,0.05655628,0.00209624,-0.00166522,-
 0.00077195,0.00002234,0.00015853,0.00012077,0.00105996,0.00006451,-0.0
 0061373,0.00002220,-0.02010796,-0.00387004,0.00632202,-0.28993466,-0.0
 5745634,-0.00082396,-0.00848198,-0.00068624,0.00105072,0.00084949,0.00
 174395,-0.00028324,0.00004147,-0.00000296,0.00002596,0.00037059,0.0001
 5047,0.00059102,0.00167270,-0.00020035,-0.00501271,0.00178288,-0.00732
 036,0.00174853,0.00039045,-0.00068032,-0.00017170,-0.00000698,-0.00001
 468,-0.00004052,0.00003092,0.00001925,0.00003734,0.00037177,0.00004158
 ,-0.00026840,0.00019559,0.00029758,0.00007705,0.00006731,0.00005923,-0
 .00069173,0.00041089,0.00017518,-0.00163818,-0.00078421,0.00220026,-0.
 00473975,0.31399824,0.00449435,-0.00316570,0.00032081,-0.00013112,0.00
 041816,-0.00055686,-0.00092977,0.00054799,0.00078146,0.00030525,0.0235
 6453,0.00506935,0.00291921,-0.05367767,-0.06118724,0.00158620,-0.00534
 486,-0.00114330,-0.00009825,0.00213464,0.00061375,-0.00025935,-0.00002
 810,0.00035571,0.00021697,-0.00020395,-0.00014019,0.00012819,-0.000956
 27,0.00211477,-0.01019661,-0.03172506,-0.02161597,0.00092080,-0.000437
 95,0.00102321,-0.00023349,0.00025518,0.00000817,-0.00000132,-0.0000970
 9,-0.00004707,0.00007572,-0.00017571,0.00028328,-0.00048139,0.00041887
 ,0.00003485,0.00000561,-0.00001421,-0.00004577,0.00017670,-0.00024459,
 -0.00011555,0.00197035,0.00203616,-0.00314718,-0.00030860,0.06679467,0
 .07733481,0.00002645,0.00023736,0.00005041,0.00041477,-0.00009269,0.00
 034528,0.00082268,-0.00135871,0.00110506,-0.00597305,0.00353734,-0.001
 95401,-0.01709633,-0.01830671,0.02586251,-0.09385465,-0.06062710,0.069
 67113,0.00001555,0.00000608,-0.00010785,-0.00019150,0.00008599,-0.0001
 9363,-0.00128543,-0.00000881,0.00037923,0.00070904,0.00014093,-0.00002
 584,0.00346261,-0.00021938,0.00024945,0.00504012,0.00151044,-0.0030042
 1,0.00002538,0.00003382,-0.00004140,-0.00003795,-0.00012884,0.00015929
 ,0.00014007,0.00000687,-0.00007788,-0.00028460,-0.00068467,0.00024437,
 -0.00001235,-0.00001201,-0.00002686,-0.00004652,0.00005521,0.00001977,
 0.00011808,-0.00009057,-0.00021452,0.00115816,0.00010551,-0.00029166,0
 .09827278,0.00010762,0.00003333,-0.00013777,-0.00004245,0.00000475,-0.
 00008984,-0.00021374,0.00044082,-0.00032297,0.00251208,0.00001704,0.00
 038109,0.00421799,0.00685261,-0.00569494,-0.06154405,-0.13260134,0.103
 40200,-0.00005436,0.00003813,0.00000092,0.00005732,-0.00000886,0.00004
 266,0.00041577,-0.00001013,-0.00014856,-0.00004042,-0.00004204,0.00012
 285,-0.00070039,-0.00010198,-0.00013990,-0.01148692,-0.04112557,0.0134
 4084,-0.00002600,-0.00000454,0.00000814,0.00003478,0.00002507,-0.00005
 375,0.00002367,-0.00002637,0.00005227,0.00098114,0.00065293,0.00126732
 ,0.00000554,0.00000589,0.00000962,0.00001155,-0.00002844,-0.00000008,0
 .00018471,0.00009683,-0.00011006,-0.00087557,0.00064651,-0.00029747,0.
 06551744,0.16272235,-0.00016924,0.00001387,0.00018750,-0.00024727,0.00
 002973,-0.00018095,-0.00040271,0.00036313,-0.00022729,0.00057884,-0.00
 124520,0.00064339,0.00073904,0.00387943,-0.00535478,0.07229343,0.10648
 254,-0.17938712,0.00007045,-0.00012117,0.00002502,0.00017039,-0.000054
 58,0.00007391,0.00049832,0.00001361,-0.00015929,0.00055762,0.00016505,
 -0.00023166,-0.00012831,-0.00033464,0.00142982,-0.00524666,-0.01181570
 ,0.01374709,0.00007436,-0.00003209,0.00002053,-0.00001338,0.00004524,-
 0.00003023,0.00012066,-0.00007279,0.00014622,-0.00050099,0.00024006,0.
 00119616,0.00000827,-0.00001068,0.00001694,0.00003618,-0.00002557,-0.0
 0000589,-0.00007009,0.00004606,0.00005042,0.00035576,-0.00014685,-0.00
 003932,-0.08065890,-0.11182874,0.18459847,0.00106227,-0.00136708,-0.00
 154114,0.00014747,0.00019634,-0.00030191,-0.00008570,0.00018621,-0.000
 25093,0.00011134,-0.00063230,-0.00133401,-0.01235437,-0.00206286,-0.02
 682756,-0.12705516,-0.00753384,-0.11967739,-0.00022341,0.00064208,0.00
 018246,-0.00019526,-0.00003311,0.00023588,0.00020033,-0.00005547,0.000
 11909,0.00058525,0.00019869,0.00025818,-0.00859826,0.00233832,0.000517
 19,0.00363245,-0.00036261,0.00285296,-0.00061089,0.00012075,-0.0000235
 8,0.00001711,0.00002466,-0.00001808,0.00040499,-0.00003463,0.00027123,
 0.00053170,0.00086904,0.00059840,-0.00000189,-0.00000421,0.00001693,0.
 00001509,-0.00001525,0.00000373,-0.00003408,-0.00008722,0.00022325,0.0
 0074017,0.00036675,0.00032201,0.00858447,0.00093364,0.01194155,0.13305
 260,-0.00047322,0.00106351,0.00037564,0.00000292,-0.00014711,0.0001351
 8,0.00003834,-0.00002075,0.00012174,-0.00026109,0.00020861,-0.00032358
 ,-0.00024894,0.00131330,0.00792497,-0.00000494,-0.04860898,-0.00039769
 ,0.00009697,-0.00038869,-0.00006671,0.00018214,0.00001022,-0.00011453,
 0.00000390,0.00002676,-0.00006806,0.00004516,-0.00000804,0.00001609,0.
 00433679,-0.00005257,0.00026009,-0.02102014,-0.01190128,-0.03718252,0.
 00025372,-0.00005836,0.00000292,-0.00000420,-0.00000174,0.00001739,0.0
 0002831,-0.00004390,-0.00000585,0.00076673,-0.00623820,-0.00245182,0.0
 0000536,0.00000399,-0.00000228,-0.00000804,-0.00000225,-0.00000093,0.0
 0009538,-0.00001455,-0.00006586,-0.00053230,-0.00000368,0.00020589,0.0
 1033714,0.00240490,0.01436118,0.00641390,0.06239630,0.00033598,0.00010
 213,0.00066916,-0.00002461,0.00000739,0.00002402,0.00007394,-0.0001467
 2,0.00008842,-0.00071811,0.00028211,-0.00031229,0.00174421,0.00130385,
 0.00538424,-0.12139344,-0.01030597,-0.24595388,-0.00005564,-0.00003808
 ,-0.00005364,-0.00003704,0.00001213,-0.00001263,-0.00010829,-0.0000097
 5,0.00003670,0.00127957,0.00032132,-0.00120748,0.00241302,-0.00011644,
 0.00076255,-0.00532676,-0.00748951,-0.00873596,0.00018393,-0.00004247,
 0.00001890,-0.00000455,-0.00001491,0.00002311,0.00024386,-0.00009010,-
 0.00007013,0.00144316,-0.00127307,0.00139283,-0.00000047,-0.00000120,-
 0.00000193,-0.00000501,0.00000634,0.00000038,-0.00007774,0.00004212,-0
 .00002949,-0.00088241,0.00007782,0.00022997,-0.01151331,0.00010114,-0.
 01650487,0.13242265,0.01727366,0.26425073,0.00062752,0.00495058,-0.005
 02150,-0.00003920,-0.00079000,0.00063940,0.00012558,-0.00025829,-0.000
 24930,0.00004043,-0.00015176,0.00000335,-0.00050574,0.00004868,-0.0005
 2538,0.00001277,0.00009152,0.00006665,-0.03629031,-0.06652612,0.108141
 94,0.00060970,-0.00120083,-0.00023157,-0.00001860,0.00014852,0.0001443
 4,-0.00000874,-0.00000711,0.00009916,-0.00026834,0.00016440,0.00037242
 ,0.00000836,-0.00004515,-0.00001651,-0.00034387,0.00064077,0.00094813,
 -0.00001272,-0.00000233,-0.00003164,0.00001156,0.00000793,0.00000052,-
 0.00002342,0.00003196,0.00000612,-0.00004609,-0.00004353,0.00021105,-0
 .00003197,0.00019220,-0.00001598,-0.00000224,0.00001073,0.00001274,-0.
 00012403,0.00017165,-0.00021535,-0.00002665,-0.00001409,0.00001177,0.0
 0001997,-0.00002065,0.00000452,0.03523375,-0.01123049,-0.03053026,0.03
 622184,0.00150718,-0.00674939,-0.00336570,-0.00006471,-0.00034760,-0.0
 0060287,-0.00008523,-0.00022334,0.00022865,0.00046034,-0.00021108,0.00
 096020,0.00021468,-0.00005533,-0.00019059,-0.05109934,-0.17258417,0.18
 537152,0.00070978,0.00117373,-0.00031183,0.00011739,0.00045820,-0.0001
 2298,-0.00001002,0.00008662,-0.00030801,-0.00034324,0.00274648,-0.0015
 3564,-0.00021090,0.00018060,0.00007870,-0.00049003,0.00219231,-0.00024
 083,-0.00004198,-0.00002747,0.00004134,-0.00000825,-0.00001778,0.00001
 047,0.00011774,-0.00011733,-0.00006923,-0.00071505,-0.00051038,0.00120
 287,0.00004721,0.00029736,0.00030081,-0.00002000,0.00005956,-0.0000093
 4,0.00005280,-0.00003538,0.00001613,-0.00001170,-0.00000099,0.00002548
 ,-0.00008844,0.00004556,0.00000191,0.06224817,0.20445854,-0.00424048,-
 0.00865037,0.00818095,0.00098640,-0.00272165,0.00077031,-0.00021516,-0
 .00065914,-0.00040843,0.00004343,0.00009526,-0.00014766,-0.00036839,0.
 00023607,-0.00077431,-0.00006096,0.00007116,0.00017063,0.10770683,0.23
 257490,-0.36570487,-0.00043145,-0.00003877,0.00021738,0.00000644,0.000
 23501,0.00033186,0.00003391,-0.00002998,0.00014021,0.00144900,-0.00118
 311,-0.00027775,0.00012155,-0.00010009,-0.00003825,-0.00021711,-0.0017
 7014,0.00152269,-0.00000580,-0.00003153,-0.00005798,0.00000910,0.00000
 301,-0.00000889,-0.00008456,0.00008634,0.00004586,-0.00028022,-0.00044
 255,0.00050106,0.00008974,0.00032724,0.00029831,-0.00008200,-0.0000031
 3,0.00001344,-0.00012663,0.00008380,-0.00010544,-0.00001058,0.00000324
 ,-0.00000520,0.00005958,-0.00003762,-0.00000331,-0.10429279,-0.2179457
 7,0.35573324,-0.00287518,0.00459314,0.00255733,-0.00872534,0.04802882,
 0.00137903,0.00051465,0.00156494,-0.00009536,-0.00042846,-0.00018196,-
 0.00021003,-0.00029057,-0.00002365,-0.00056572,-0.00012547,0.00007687,
 0.00012471,0.00104924,0.00003288,-0.00161300,-0.04301414,-0.02748758,0
 .00074783,-0.00012724,-0.00059204,0.00060399,0.00010407,-0.00014992,0.
 00026490,0.00201411,-0.00087569,-0.00016573,0.00014334,-0.00013164,-0.
 00006525,0.00002875,-0.00030950,-0.00007219,0.00006915,0.00010491,-0.0
 0029112,-0.00004614,0.00004545,-0.00003582,-0.00006864,0.00008486,0.00
 004571,-0.00610396,0.00104750,0.00019724,-0.00041660,-0.00065492,-0.00
 093334,0.00023961,-0.00016760,-0.00005427,-0.00006376,-0.00002711,0.00
 002555,0.00001888,-0.00000524,-0.00001908,0.00005382,-0.00003328,0.000
 00252,0.00105229,-0.00105590,-0.00008984,0.05699758,-0.00119890,0.0024
 2597,-0.00027463,0.00432768,-0.01511681,-0.00177241,-0.00139846,0.0013
 4533,0.00126992,0.00042319,0.00010566,-0.00043016,0.00019044,0.0002430
 2,0.00003540,0.00004587,-0.00009057,-0.00003873,-0.00118068,-0.0011571
 6,0.00036526,0.02190434,-0.51259744,-0.00148495,-0.00019057,-0.0000282
 9,-0.00044479,-0.00060584,0.00003811,-0.00045109,-0.00082680,-0.000960
 69,0.00029506,-0.00006115,0.00003814,0.00005010,0.00015284,-0.00021530
 ,-0.00011277,0.00015674,-0.00041328,0.00073300,0.00006564,-0.00005161,
 0.00010816,0.00003075,-0.00002470,-0.00002707,0.00155335,0.00162086,0.
 00081468,0.00038759,-0.00029340,0.00036224,-0.00016912,-0.00002161,-0.
 00003076,-0.00002999,-0.00003179,-0.00002358,-0.00003294,0.00000909,0.
 00002264,-0.00001338,0.00001696,-0.00000372,0.00035275,-0.00028846,-0.
 00010219,-0.02388335,0.52544796,0.00267373,-0.00345093,0.00005064,0.00
 065586,-0.00274390,-0.00074051,-0.00006250,0.00255331,0.00031455,-0.00
 048777,-0.00041292,-0.00011803,0.00016123,-0.00002255,0.00067038,0.000
 00654,0.00002165,-0.00014301,-0.00181179,0.00026834,-0.00027189,0.0003
 6514,0.00300776,-0.00493239,-0.00032028,-0.00051947,-0.00024974,0.0001
 9092,-0.00004670,0.00004671,-0.00136383,0.00054491,-0.00017584,-0.0000
 2236,0.00003455,-0.00002013,0.00009329,0.00009959,-0.00023770,-0.00002
 507,0.00069182,-0.00009096,-0.00005820,0.00004470,-0.00004746,0.000035
 82,-0.00004450,-0.00000272,0.00200028,-0.00085511,0.00010575,-0.000398
 91,-0.00051547,-0.00034104,0.00017762,-0.00005228,-0.00004148,0.000006
 78,-0.00000073,-0.00002625,0.00003414,-0.00000800,-0.00000887,-0.00005
 050,0.00002270,0.00000458,-0.00006210,0.00024287,-0.00039383,-0.001738
 07,0.00114037,0.00664923\\0.00000051,0.00000161,0.00000034,0.00000039,
 0.00000208,-0.00000120,0.00000037,-0.00000018,0.00000092,-0.00000190,-
 0.00000200,-0.00000260,0.00000045,-0.00000101,0.00000067,0.00000005,-0
 .00000262,-0.00000057,0.00000135,0.00000262,0.00000262,-0.00000041,0.0
 0000324,0.,-0.00000085,-0.00000066,-0.00000127,0.00000088,-0.00000319,
 0.00000122,-0.00000016,0.00000123,0.00000044,-0.00000144,-0.00000109,-
 0.00000131,0.00000035,0.00000387,0.00000022,-0.00000066,0.00000009,-0.
 00000089,-0.00000086,-0.00000381,-0.00000085,-0.00000141,-0.00000019,-
 0.00000161,-0.00000140,0.00000215,-0.00000116,0.00000089,-0.00000059,0
 .00000099,-0.00000125,-0.00000111,-0.00000154,0.00000120,-0.00000135,0
 .00000135,0.00000065,-0.00000146,0.00000063,-0.00000015,-0.00000356,-0
 .00000004,0.00000232,0.00000281,0.00000243,0.00000107,0.00000312,0.000
 00120\\\@


 GOORD'S AXIOM:  A MEETING IS AN EVENT AT WHICH
 THE MINUTES ARE KEPT AND THE HOURS ARE LOST.
 Job cpu time:  0 days 15 hours  3 minutes 50.3 seconds.
 File lengths (MBytes):  RWF=    509 Int=      0 D2E=      0 Chk=     21 Scr=      1
 Normal termination of Gaussian 09 at Sun May 19 15:40:29 2013.
