 Entering Gaussian System, Link 0=g09
 Initial command:
 /projects/nrel/apps/gaussian/g09/B.01/g09/l1.exe /scratch/hbmayes/gluc5b2-8ppO3pp3btsmircfoptm.2436961.scr/Gau-16895.inp -scrdir=/scratch/hbmayes/gluc5b2-8ppO3pp3btsmircfoptm.2436961.scr/
 Default is to use a total of   8 processors:
                                8 via shared-memory
                                1 via Linda
 Entering Link 1 = /projects/nrel/apps/gaussian/g09/B.01/g09/l1.exe PID=     16896.
  
 Copyright (c) 1988,1990,1992,1993,1995,1998,2003,2009,2010,
            Gaussian, Inc.  All Rights Reserved.
  
 This is part of the Gaussian(R) 09 program.  It is based on
 the Gaussian(R) 03 system (copyright 2003, Gaussian, Inc.),
 the Gaussian(R) 98 system (copyright 1998, Gaussian, Inc.),
 the Gaussian(R) 94 system (copyright 1995, Gaussian, Inc.),
 the Gaussian 92(TM) system (copyright 1992, Gaussian, Inc.),
 the Gaussian 90(TM) system (copyright 1990, Gaussian, Inc.),
 the Gaussian 88(TM) system (copyright 1988, Gaussian, Inc.),
 the Gaussian 86(TM) system (copyright 1986, Carnegie Mellon
 University), and the Gaussian 82(TM) system (copyright 1983,
 Carnegie Mellon University). Gaussian is a federally registered
 trademark of Gaussian, Inc.
  
 This software contains proprietary and confidential information,
 including trade secrets, belonging to Gaussian, Inc.
  
 This software is provided under written license and may be
 used, copied, transmitted, or stored only in accord with that
 written license.
  
 The following legend is applicable only to US Government
 contracts under FAR:
  
                    RESTRICTED RIGHTS LEGEND
  
 Use, reproduction and disclosure by the US Government is
 subject to restrictions as set forth in subparagraphs (a)
 and (c) of the Commercial Computer Software - Restricted
 Rights clause in FAR 52.227-19.
  
 Gaussian, Inc.
 340 Quinnipiac St., Bldg. 40, Wallingford CT 06492
  
  
 ---------------------------------------------------------------
 Warning -- This program may not be used in any manner that
 competes with the business of Gaussian, Inc. or will provide
 assistance to any competitor of Gaussian, Inc.  The licensee
 of this program is prohibited from giving any competitor of
 Gaussian, Inc. access to this program.  By using this program,
 the user acknowledges that Gaussian, Inc. is engaged in the
 business of creating and licensing software in the field of
 computational chemistry and represents and warrants to the
 licensee that it is not a competitor of Gaussian, Inc. and that
 it will not use this program in any manner prohibited above.
 ---------------------------------------------------------------
  

 Cite this work as:
 Gaussian 09, Revision B.01,
 M. J. Frisch, G. W. Trucks, H. B. Schlegel, G. E. Scuseria, 
 M. A. Robb, J. R. Cheeseman, G. Scalmani, V. Barone, B. Mennucci, 
 G. A. Petersson, H. Nakatsuji, M. Caricato, X. Li, H. P. Hratchian, 
 A. F. Izmaylov, J. Bloino, G. Zheng, J. L. Sonnenberg, M. Hada, 
 M. Ehara, K. Toyota, R. Fukuda, J. Hasegawa, M. Ishida, T. Nakajima, 
 Y. Honda, O. Kitao, H. Nakai, T. Vreven, J. A. Montgomery, Jr., 
 J. E. Peralta, F. Ogliaro, M. Bearpark, J. J. Heyd, E. Brothers, 
 K. N. Kudin, V. N. Staroverov, T. Keith, R. Kobayashi, J. Normand, 
 K. Raghavachari, A. Rendell, J. C. Burant, S. S. Iyengar, J. Tomasi, 
 M. Cossi, N. Rega, J. M. Millam, M. Klene, J. E. Knox, J. B. Cross, 
 V. Bakken, C. Adamo, J. Jaramillo, R. Gomperts, R. E. Stratmann, 
 O. Yazyev, A. J. Austin, R. Cammi, C. Pomelli, J. W. Ochterski, 
 R. L. Martin, K. Morokuma, V. G. Zakrzewski, G. A. Voth, 
 P. Salvador, J. J. Dannenberg, S. Dapprich, A. D. Daniels, 
 O. Farkas, J. B. Foresman, J. V. Ortiz, J. Cioslowski, 
 and D. J. Fox, Gaussian, Inc., Wallingford CT, 2010.
 
 ******************************************
 Gaussian 09:  EM64L-G09RevB.01 12-Aug-2010
                17-May-2013 
 ******************************************
 %RWF=/dev/shm/,2GB,/scratch/hbmayes/gluc5b2-8ppO3pp3btsmircfoptm.2436961.scr/,-1
 %NoSave
 %CHK=/scratch/hbmayes/glucose/gluc5b2-8ppO3pp3btsmircfoptm.chk
 %mem=10GB
 %nproc=8
 Will use up to    8 processors via shared memory.
 Default route:  MaxDisk=16GB
 ----------------------------------------------------------------------
 # opt(Tight,noeigen) freq=noraman m062x/6-311+G(2df,p) Int=(Grid=Ultra
 fine) nosymm scrf=(solvent=ethanol) scf=(xqc,maxcycle=1000)
 ----------------------------------------------------------------------
 1/7=10,11=1,14=-1,18=20,19=15,26=3,38=1/1,3;
 2/9=110,12=2,15=1,17=6,18=5,40=1/2;
 3/5=4,6=6,7=114,11=2,16=1,25=1,30=1,70=2201,71=1,72=4,74=-55,75=-5/1,2,3;
 4//1;
 5/5=2,7=1000,8=3,13=1,38=5,53=4/2,8;
 6/7=2,8=2,9=2,10=2,28=1/1;
 7/30=1/1,2,3,16;
 1/7=10,11=1,14=-1,18=20,19=15/3(2);
 2/9=110,15=1/2;
 99//99;
 2/9=110,15=1/2;
 3/5=4,6=6,7=114,11=2,16=1,25=1,30=1,70=2205,71=1,72=4,74=-55,75=-5/1,2,3;
 4/5=5,16=3/1;
 5/5=2,7=1000,8=3,13=1,38=5,53=4/2,8;
 7/30=1/1,2,3,16;
 1/7=10,11=1,14=-1,18=20,19=15/3(-5);
 2/9=110,15=1/2;
 6/7=2,8=2,9=2,10=2,19=2,28=1/1;
 99/9=1/99;
 --------------
 look for low E
 --------------
 Symbolic Z-matrix:
 Charge =  0 Multiplicity = 1
 6                    -2.10294  -0.18225   1.46653 
 6                    -1.11457   0.0402    0.43552 
 6                    -1.20085   0.74048  -0.73415 
 6                     0.07753   0.67547  -1.31729 
 6                     0.86458  -0.0296   -0.45452 
 6                     2.28703   0.27033  -0.14091 
 8                    -1.90346  -0.84113   2.46203 
 8                     0.12745  -0.46223   0.60045 
 8                     2.26436   1.51413   0.56193 
 1                    -3.06794   0.31823   1.28438 
 1                    -2.07814   1.24713  -1.1032 
 1                     0.40789   1.13709  -2.23137 
 1                     1.94913   1.35385   1.45752 
 1                     2.76654  -0.51027   0.45143 
 1                     2.85521   0.43313  -1.05436 
 

 GradGradGradGradGradGradGradGradGradGradGradGradGradGradGradGradGradGrad
 Berny optimization.
 Initialization pass.
                           ----------------------------
                           !    Initial Parameters    !
                           ! (Angstroms and Degrees)  !
 --------------------------                            --------------------------
 ! Name  Definition              Value          Derivative Info.                !
 --------------------------------------------------------------------------------
 ! R1    R(1,2)                  1.4455         estimate D2E/DX2                !
 ! R2    R(1,7)                  1.2103         estimate D2E/DX2                !
 ! R3    R(1,10)                 1.1022         estimate D2E/DX2                !
 ! R4    R(2,3)                  1.366          estimate D2E/DX2                !
 ! R5    R(2,8)                  1.3499         estimate D2E/DX2                !
 ! R6    R(3,4)                  1.4066         estimate D2E/DX2                !
 ! R7    R(3,11)                 1.0782         estimate D2E/DX2                !
 ! R8    R(4,5)                  1.3642         estimate D2E/DX2                !
 ! R9    R(4,12)                 1.076          estimate D2E/DX2                !
 ! R10   R(5,6)                  1.4872         estimate D2E/DX2                !
 ! R11   R(5,8)                  1.3577         estimate D2E/DX2                !
 ! R12   R(6,9)                  1.4288         estimate D2E/DX2                !
 ! R13   R(6,14)                 1.0909         estimate D2E/DX2                !
 ! R14   R(6,15)                 1.088          estimate D2E/DX2                !
 ! R15   R(9,13)                 0.9629         estimate D2E/DX2                !
 ! A1    A(2,1,7)              123.8997         estimate D2E/DX2                !
 ! A2    A(2,1,10)             114.2613         estimate D2E/DX2                !
 ! A3    A(7,1,10)             121.8304         estimate D2E/DX2                !
 ! A4    A(1,2,3)              130.2752         estimate D2E/DX2                !
 ! A5    A(1,2,8)              118.9929         estimate D2E/DX2                !
 ! A6    A(3,2,8)              110.7043         estimate D2E/DX2                !
 ! A7    A(2,3,4)              105.8959         estimate D2E/DX2                !
 ! A8    A(2,3,11)             125.8299         estimate D2E/DX2                !
 ! A9    A(4,3,11)             128.2646         estimate D2E/DX2                !
 ! A10   A(3,4,5)              106.6208         estimate D2E/DX2                !
 ! A11   A(3,4,12)             127.6911         estimate D2E/DX2                !
 ! A12   A(5,4,12)             125.5828         estimate D2E/DX2                !
 ! A13   A(4,5,6)              125.5189         estimate D2E/DX2                !
 ! A14   A(4,5,8)              110.0521         estimate D2E/DX2                !
 ! A15   A(6,5,8)              114.8149         estimate D2E/DX2                !
 ! A16   A(5,6,9)              105.3144         estimate D2E/DX2                !
 ! A17   A(5,6,14)             112.9924         estimate D2E/DX2                !
 ! A18   A(5,6,15)             110.648          estimate D2E/DX2                !
 ! A19   A(9,6,14)             111.2704         estimate D2E/DX2                !
 ! A20   A(9,6,15)             106.9186         estimate D2E/DX2                !
 ! A21   A(14,6,15)            109.4747         estimate D2E/DX2                !
 ! A22   A(2,8,5)              106.6178         estimate D2E/DX2                !
 ! A23   A(6,9,13)             108.5304         estimate D2E/DX2                !
 ! D1    D(7,1,2,3)            179.2399         estimate D2E/DX2                !
 ! D2    D(7,1,2,8)             -2.8661         estimate D2E/DX2                !
 ! D3    D(10,1,2,3)            -1.8127         estimate D2E/DX2                !
 ! D4    D(10,1,2,8)           176.0813         estimate D2E/DX2                !
 ! D5    D(1,2,3,4)            177.3387         estimate D2E/DX2                !
 ! D6    D(1,2,3,11)            -1.6045         estimate D2E/DX2                !
 ! D7    D(8,2,3,4)             -0.6921         estimate D2E/DX2                !
 ! D8    D(8,2,3,11)          -179.6353         estimate D2E/DX2                !
 ! D9    D(1,2,8,5)           -175.7654         estimate D2E/DX2                !
 ! D10   D(3,2,8,5)              2.5171         estimate D2E/DX2                !
 ! D11   D(2,3,4,5)             -1.4003         estimate D2E/DX2                !
 ! D12   D(2,3,4,12)          -177.8025         estimate D2E/DX2                !
 ! D13   D(11,3,4,5)           177.5084         estimate D2E/DX2                !
 ! D14   D(11,3,4,12)            1.1062         estimate D2E/DX2                !
 ! D15   D(3,4,5,6)           -141.0296         estimate D2E/DX2                !
 ! D16   D(3,4,5,8)              3.012          estimate D2E/DX2                !
 ! D17   D(12,4,5,6)            35.4699         estimate D2E/DX2                !
 ! D18   D(12,4,5,8)           179.5115         estimate D2E/DX2                !
 ! D19   D(4,5,6,9)             67.4204         estimate D2E/DX2                !
 ! D20   D(4,5,6,14)          -170.9261         estimate D2E/DX2                !
 ! D21   D(4,5,6,15)           -47.7702         estimate D2E/DX2                !
 ! D22   D(8,5,6,9)            -75.1552         estimate D2E/DX2                !
 ! D23   D(8,5,6,14)            46.4983         estimate D2E/DX2                !
 ! D24   D(8,5,6,15)           169.6542         estimate D2E/DX2                !
 ! D25   D(4,5,8,2)             -3.4278         estimate D2E/DX2                !
 ! D26   D(6,5,8,2)            144.7994         estimate D2E/DX2                !
 ! D27   D(5,6,9,13)            75.1415         estimate D2E/DX2                !
 ! D28   D(14,6,9,13)          -47.6238         estimate D2E/DX2                !
 ! D29   D(15,6,9,13)         -167.1195         estimate D2E/DX2                !
 --------------------------------------------------------------------------------
 Trust Radius=3.00D-01 FncErr=1.00D-07 GrdErr=1.00D-06
 Number of steps in this run=     77 maximum allowed number of steps=    100.
 GradGradGradGradGradGradGradGradGradGradGradGradGradGradGradGradGradGrad

                          Input orientation:                          
 ---------------------------------------------------------------------
 Center     Atomic      Atomic             Coordinates (Angstroms)
 Number     Number       Type             X           Y           Z
 ---------------------------------------------------------------------
      1          6           0       -2.102942   -0.182246    1.466532
      2          6           0       -1.114567    0.040200    0.435516
      3          6           0       -1.200852    0.740480   -0.734145
      4          6           0        0.077527    0.675473   -1.317293
      5          6           0        0.864578   -0.029603   -0.454520
      6          6           0        2.287033    0.270325   -0.140906
      7          8           0       -1.903458   -0.841132    2.462026
      8          8           0        0.127447   -0.462229    0.600448
      9          8           0        2.264362    1.514134    0.561931
     10          1           0       -3.067937    0.318229    1.284379
     11          1           0       -2.078137    1.247129   -1.103199
     12          1           0        0.407890    1.137095   -2.231366
     13          1           0        1.949130    1.353851    1.457519
     14          1           0        2.766540   -0.510265    0.451425
     15          1           0        2.855207    0.433126   -1.054357
 ---------------------------------------------------------------------
                    Distance matrix (angstroms):
                    1          2          3          4          5
     1  C    0.000000
     2  C    1.445462   0.000000
     3  C    2.551111   1.365996   0.000000
     4  C    3.638655   2.212916   1.406606   0.000000
     5  C    3.538349   2.171187   2.221985   1.364170   0.000000
     6  C    4.696867   3.457760   3.569078   2.535734   1.487175
     7  O    1.210344   2.346452   3.634647   4.528537   4.102054
     8  O    2.408968   1.349902   2.234284   2.230379   1.357750
     9  O    4.771724   3.688580   3.779691   3.002846   2.318554
    10  H    1.102212   2.147911   2.781859   4.097592   4.313865
    11  H    2.940620   2.180089   1.078204   2.240427   3.272675
    12  H    4.660406   3.260876   2.233165   1.075994   2.174150
    13  H    4.333470   3.486604   3.886129   3.415066   2.597324
    14  H    4.984967   3.919982   4.325522   3.430033   2.160841
    15  H    5.596142   4.258312   4.080272   2.800602   2.129912
                    6          7          8          9         10
     6  C    0.000000
     7  O    5.056758   0.000000
     8  O    2.397927   2.780938   0.000000
     9  O    1.428830   5.150569   2.910996   0.000000
    10  H    5.541609   2.021628   3.359666   5.512307   0.000000
    11  H    4.575463   4.135478   3.269391   4.658460   2.746468
    12  H    2.941512   5.593178   3.264300   3.375078   5.011225
    13  H    1.960400   4.546363   2.711318   0.962881   5.125764
    14  H    1.090919   5.095181   2.643734   2.088680   5.951583
    15  H    1.087988   6.052568   3.313716   2.032256   6.369185
                   11         12         13         14         15
    11  H    0.000000
    12  H    2.732252   0.000000
    13  H    4.773630   4.003783   0.000000
    14  H    5.382953   3.933750   2.270531   0.000000
    15  H    5.000287   2.805402   2.824576   1.779109   0.000000
 Symmetry turned off by external request.
 Stoichiometry    C6H6O3
 Framework group  C1[X(C6H6O3)]
 Deg. of freedom    39
 Full point group                 C1      NOp   1
 Rotational constants (GHZ):      3.2927340      1.1627429      0.9687184
 Standard basis: 6-311+G(2df,p) (5D, 7F)
 Integral buffers will be    131072 words long.
 Raffenetti 2 integral format.
 Two-electron integral symmetry is turned off.
   342 basis functions,   516 primitive gaussians,   387 cartesian basis functions
    33 alpha electrons       33 beta electrons
       nuclear repulsion energy       431.8410830191 Hartrees.
 NAtoms=   15 NActive=   15 NUniq=   15 SFac= 1.00D+00 NAtFMM=   50 NAOKFM=F Big=F
 ------------------------------------------------------------------------------
 Polarizable Continuum Model (PCM)
 =================================
 Model                : PCM.
 Atomic radii         : UFF (Universal Force Field).
 Polarization charges : Total charges.
 Charge compensation  : None.
 Solution method      : Matrix inversion.
 Cavity type          : Scaled VdW (van der Waals Surface) (Alpha=1.100).
 Cavity algorithm     : GePol (No added spheres)
                        Default sphere list used, NSphG=   15.
                        Lebedev-Laikov grids with approx.  5.0 points / Ang**2.
                        Smoothing algorithm: Karplus/York (Gamma=1.0000).
                        Polarization charges: spherical gaussians, with
                                              point-specific exponents (IZeta= 3).
                        Self-potential: point-specific (ISelfS= 7).
                        Self-field    : sphere-specific E.n sum rule (ISelfD= 2).
 1st derivatives      : Analytical E(r).r(x)/FMM algorithm (CHGder, D1EAlg=3).
                        Cavity 1st derivative terms included.
 Solvent              : Ethanol, Eps=  24.852000 Eps(inf)=   1.852593
 ------------------------------------------------------------------------------
 Spheres list:
 ISph  on   Nord    Re0     Alpha      Xe            Ye            Ze
    1   C      1    1.926   1.100     -2.102942     -0.182246      1.466532
    2   C      2    1.926   1.100     -1.114567      0.040200      0.435516
    3   C      3    1.926   1.100     -1.200852      0.740480     -0.734145
    4   C      4    1.926   1.100      0.077527      0.675473     -1.317293
    5   C      5    1.926   1.100      0.864578     -0.029603     -0.454520
    6   C      6    1.926   1.100      2.287033      0.270325     -0.140906
    7   O      7    1.750   1.100     -1.903458     -0.841132      2.462026
    8   O      8    1.750   1.100      0.127447     -0.462229      0.600448
    9   O      9    1.750   1.100      2.264362      1.514134      0.561931
   10   H     10    1.443   1.100     -3.067937      0.318229      1.284379
   11   H     11    1.443   1.100     -2.078137      1.247129     -1.103199
   12   H     12    1.443   1.100      0.407890      1.137095     -2.231366
   13   H     13    1.443   1.100      1.949130      1.353851      1.457519
   14   H     14    1.443   1.100      2.766540     -0.510265      0.451425
   15   H     15    1.443   1.100      2.855207      0.433126     -1.054357
 ------------------------------------------------------------------------------
 One-electron integrals computed using PRISM.
 NBasis=   342 RedAO= T  NBF=   342
 NBsUse=   342 1.00D-06 NBFU=   342
 Harris functional with IExCor= 1009 diagonalized for initial guess.
 ExpMin= 4.38D-02 ExpMax= 8.59D+03 ExpMxC= 1.30D+03 IAcc=3 IRadAn=         5 AccDes= 0.00D+00
 HarFok:  IExCor= 1009 AccDes= 0.00D+00 IRadAn=         5 IDoV= 1
 ScaDFX=  1.000000  1.000000  1.000000  1.000000
 FoFCou: FMM=F IPFlag=           0 FMFlag=      100000 FMFlg1=           0
         NFxFlg=           0 DoJE=T BraDBF=F KetDBF=T FulRan=T
         Omega=  0.000000  0.000000  1.000000  0.000000  0.000000 ICntrl=     500 IOpCl=  0
         NMat0=    1 NMatS0=    1 NMatT0=    0 NMatD0=    1 NMtDS0=    0 NMtDT0=    0
         I1Cent=           4 NGrid=           0.
 Symmetry not used in FoFCou.
 Requested convergence on RMS density matrix=1.00D-08 within 128 cycles.
 Requested convergence on MAX density matrix=1.00D-06.
 Requested convergence on             energy=1.00D-06.
 No special actions if energy rises.
 Error on total polarization charges =  0.01110
 SCF Done:  E(RM062X) =  -457.853177570     A.U. after   15 cycles
             Convg  =    0.1990D-08             -V/T =  2.0034
 QCSCF skips out because SCF is already converged.

 **********************************************************************

            Population analysis using the SCF density.

 **********************************************************************

 Alpha  occ. eigenvalues --  -19.71367 -19.63862 -19.63347 -10.64149 -10.61563
 Alpha  occ. eigenvalues --  -10.60898 -10.60640 -10.56643 -10.55345  -1.26837
 Alpha  occ. eigenvalues --   -1.18284  -1.16027  -0.93231  -0.90079  -0.80911
 Alpha  occ. eigenvalues --   -0.72290  -0.71222  -0.65709  -0.61617  -0.59204
 Alpha  occ. eigenvalues --   -0.57916  -0.55499  -0.54222  -0.51687  -0.49127
 Alpha  occ. eigenvalues --   -0.48966  -0.47733  -0.46575  -0.43193  -0.38257
 Alpha  occ. eigenvalues --   -0.36739  -0.35280  -0.30032
 Alpha virt. eigenvalues --   -0.04390   0.01032   0.02620   0.02873   0.03430
 Alpha virt. eigenvalues --    0.04478   0.04783   0.04836   0.06039   0.06472
 Alpha virt. eigenvalues --    0.07692   0.08540   0.08957   0.10146   0.10475
 Alpha virt. eigenvalues --    0.11057   0.12465   0.12906   0.14504   0.15212
 Alpha virt. eigenvalues --    0.15936   0.16667   0.17263   0.18478   0.18733
 Alpha virt. eigenvalues --    0.19346   0.20972   0.21244   0.22275   0.22776
 Alpha virt. eigenvalues --    0.23252   0.24053   0.24718   0.25490   0.25994
 Alpha virt. eigenvalues --    0.26220   0.26973   0.27341   0.28491   0.29388
 Alpha virt. eigenvalues --    0.30446   0.31025   0.31506   0.32199   0.32990
 Alpha virt. eigenvalues --    0.34565   0.36412   0.38152   0.39114   0.41243
 Alpha virt. eigenvalues --    0.43457   0.45810   0.47441   0.48227   0.50262
 Alpha virt. eigenvalues --    0.51500   0.52199   0.53855   0.54494   0.55677
 Alpha virt. eigenvalues --    0.57228   0.58541   0.59636   0.62021   0.63521
 Alpha virt. eigenvalues --    0.65082   0.66115   0.68085   0.68356   0.68948
 Alpha virt. eigenvalues --    0.69683   0.71042   0.71349   0.72624   0.74159
 Alpha virt. eigenvalues --    0.76404   0.77209   0.78551   0.80072   0.81098
 Alpha virt. eigenvalues --    0.83051   0.83932   0.87230   0.87741   0.89392
 Alpha virt. eigenvalues --    0.91248   0.93293   0.94687   0.95070   0.96205
 Alpha virt. eigenvalues --    1.01273   1.03907   1.05534   1.06887   1.09694
 Alpha virt. eigenvalues --    1.10239   1.11083   1.12024   1.13871   1.15931
 Alpha virt. eigenvalues --    1.18756   1.20104   1.21271   1.21988   1.22736
 Alpha virt. eigenvalues --    1.27401   1.27778   1.29142   1.30707   1.31915
 Alpha virt. eigenvalues --    1.34125   1.36489   1.39902   1.41459   1.43140
 Alpha virt. eigenvalues --    1.43493   1.45720   1.46022   1.50269   1.52753
 Alpha virt. eigenvalues --    1.55060   1.56621   1.59465   1.61448   1.62824
 Alpha virt. eigenvalues --    1.67552   1.70922   1.72327   1.75111   1.75943
 Alpha virt. eigenvalues --    1.80481   1.83832   1.84876   1.89491   1.93162
 Alpha virt. eigenvalues --    1.95194   1.97978   2.03175   2.05091   2.09479
 Alpha virt. eigenvalues --    2.12522   2.14513   2.17570   2.18008   2.20883
 Alpha virt. eigenvalues --    2.28183   2.28602   2.31838   2.33495   2.35045
 Alpha virt. eigenvalues --    2.40884   2.42423   2.44683   2.48791   2.50100
 Alpha virt. eigenvalues --    2.52703   2.54515   2.56594   2.59959   2.61025
 Alpha virt. eigenvalues --    2.63038   2.63764   2.66453   2.70745   2.72461
 Alpha virt. eigenvalues --    2.75341   2.78029   2.78308   2.79155   2.80673
 Alpha virt. eigenvalues --    2.82267   2.83534   2.85295   2.87809   2.88680
 Alpha virt. eigenvalues --    2.90622   2.93967   2.95011   2.98290   2.98649
 Alpha virt. eigenvalues --    3.03510   3.05419   3.07160   3.07936   3.09965
 Alpha virt. eigenvalues --    3.12137   3.16227   3.16291   3.20421   3.21083
 Alpha virt. eigenvalues --    3.23426   3.23771   3.27044   3.28215   3.29202
 Alpha virt. eigenvalues --    3.29641   3.33679   3.37051   3.37705   3.38866
 Alpha virt. eigenvalues --    3.39613   3.40869   3.42980   3.43383   3.44074
 Alpha virt. eigenvalues --    3.45238   3.48010   3.48794   3.51302   3.52416
 Alpha virt. eigenvalues --    3.54960   3.55949   3.56766   3.59287   3.64301
 Alpha virt. eigenvalues --    3.65468   3.69636   3.71432   3.74030   3.75642
 Alpha virt. eigenvalues --    3.76975   3.79171   3.80666   3.81871   3.83173
 Alpha virt. eigenvalues --    3.87849   3.92480   3.94059   3.94592   4.00245
 Alpha virt. eigenvalues --    4.03437   4.05706   4.11623   4.23097   4.26850
 Alpha virt. eigenvalues --    4.29780   4.33223   4.39205   4.42818   4.43698
 Alpha virt. eigenvalues --    4.48838   4.51916   4.53621   4.56804   4.59771
 Alpha virt. eigenvalues --    4.65656   4.72837   4.78757   4.82824   4.84681
 Alpha virt. eigenvalues --    4.94270   5.03506   5.10440   5.10705   5.14969
 Alpha virt. eigenvalues --    5.16637   5.17239   5.20368   5.23088   5.32708
 Alpha virt. eigenvalues --    5.34424   5.35180   5.37134   5.37476   5.40694
 Alpha virt. eigenvalues --    5.45023   5.50416   5.53148   5.54957   5.64473
 Alpha virt. eigenvalues --    5.67731   5.72692   5.76817   5.79584   5.83894
 Alpha virt. eigenvalues --    5.86378   5.98057   6.26837   6.31145   6.35749
 Alpha virt. eigenvalues --    6.47395   6.53576   6.75677   6.82411   6.87849
 Alpha virt. eigenvalues --    6.92912   6.94304   7.09878   7.10811   7.11785
 Alpha virt. eigenvalues --    7.18326   7.21531   7.27560   7.35873   7.37884
 Alpha virt. eigenvalues --    7.40498   7.56382   7.59190   7.75360   7.80774
 Alpha virt. eigenvalues --   24.16496  24.46310  24.51707  24.71433  24.83188
 Alpha virt. eigenvalues --   25.00222  50.08192  50.18588  50.26393
          Condensed to atoms (all electrons):
              1          2          3          4          5          6
     1  C    7.311075  -0.610915  -0.804404   0.121052  -0.184500  -0.109748
     2  C   -0.610915   7.512472  -1.358269   1.141656  -0.989826  -0.087306
     3  C   -0.804404  -1.358269   8.049283  -1.150020   0.878280   0.217206
     4  C    0.121052   1.141656  -1.150020   6.599388  -0.476014  -0.062238
     5  C   -0.184500  -0.989826   0.878280  -0.476014   6.166717   0.053508
     6  C   -0.109748  -0.087306   0.217206  -0.062238   0.053508   5.367303
     7  O    0.387155  -0.158224   0.002718   0.001296   0.021770   0.002877
     8  O   -0.360381   0.156900   0.116341  -0.175347   0.366631  -0.079381
     9  O    0.016348   0.077822  -0.078658   0.063463  -0.067595   0.073661
    10  H    0.392790  -0.107911   0.052300  -0.001883   0.009852   0.001148
    11  H    0.001146   0.025982   0.316780   0.027905  -0.011282   0.000705
    12  H    0.005525  -0.003562   0.008674   0.352922  -0.001625  -0.000845
    13  H    0.001302  -0.009036   0.019004  -0.034117   0.006983   0.013360
    14  H    0.002477   0.006765  -0.011810   0.021393  -0.012255   0.386461
    15  H   -0.002965  -0.019273   0.023047  -0.024334  -0.064305   0.476144
              7          8          9         10         11         12
     1  C    0.387155  -0.360381   0.016348   0.392790   0.001146   0.005525
     2  C   -0.158224   0.156900   0.077822  -0.107911   0.025982  -0.003562
     3  C    0.002718   0.116341  -0.078658   0.052300   0.316780   0.008674
     4  C    0.001296  -0.175347   0.063463  -0.001883   0.027905   0.352922
     5  C    0.021770   0.366631  -0.067595   0.009852  -0.011282  -0.001625
     6  C    0.002877  -0.079381   0.073661   0.001148   0.000705  -0.000845
     7  O    8.190790   0.028476  -0.000417  -0.060232   0.000215   0.000012
     8  O    0.028476   8.039137  -0.003034   0.013414   0.003557   0.003826
     9  O   -0.000417  -0.003034   8.093260  -0.000006   0.000068  -0.000999
    10  H   -0.060232   0.013414  -0.000006   0.521812   0.000623   0.000035
    11  H    0.000215   0.003557   0.000068   0.000623   0.431314  -0.001803
    12  H    0.000012   0.003826  -0.000999   0.000035  -0.001803   0.442152
    13  H   -0.000329   0.006300   0.287125  -0.000024  -0.000013   0.000012
    14  H    0.000090  -0.006186  -0.038813   0.000003   0.000005   0.000047
    15  H   -0.000011   0.012022  -0.049673  -0.000001  -0.000007   0.000177
             13         14         15
     1  C    0.001302   0.002477  -0.002965
     2  C   -0.009036   0.006765  -0.019273
     3  C    0.019004  -0.011810   0.023047
     4  C   -0.034117   0.021393  -0.024334
     5  C    0.006983  -0.012255  -0.064305
     6  C    0.013360   0.386461   0.476144
     7  O   -0.000329   0.000090  -0.000011
     8  O    0.006300  -0.006186   0.012022
     9  O    0.287125  -0.038813  -0.049673
    10  H   -0.000024   0.000003  -0.000001
    11  H   -0.000013   0.000005  -0.000007
    12  H    0.000012   0.000047   0.000177
    13  H    0.392994  -0.007105   0.005424
    14  H   -0.007105   0.485129  -0.024036
    15  H    0.005424  -0.024036   0.473042
 Mulliken atomic charges:
              1
     1  C   -0.165957
     2  C    0.422724
     3  C   -0.280474
     4  C   -0.405121
     5  C    0.303660
     6  C   -0.252856
     7  O   -0.416186
     8  O   -0.122276
     9  O   -0.372551
    10  H    0.178079
    11  H    0.204804
    12  H    0.195451
    13  H    0.318120
    14  H    0.197834
    15  H    0.194750
 Sum of Mulliken atomic charges =   0.00000
 Mulliken charges with hydrogens summed into heavy atoms:
              1
     1  C    0.012122
     2  C    0.422724
     3  C   -0.075670
     4  C   -0.209670
     5  C    0.303660
     6  C    0.139728
     7  O   -0.416186
     8  O   -0.122276
     9  O   -0.054431
 Sum of Mulliken charges with hydrogens summed into heavy atoms =   0.00000
 Electronic spatial extent (au):  <R**2>=           1241.0578
 Charge=              0.0000 electrons
 Dipole moment (field-independent basis, Debye):
    X=              0.3165    Y=              1.5851    Z=             -3.7372  Tot=              4.0718
 Quadrupole moment (field-independent basis, Debye-Ang):
   XX=            -46.7670   YY=            -57.1772   ZZ=            -56.9423
   XY=             -9.0086   XZ=              5.6184   YZ=              3.3291
 Traceless Quadrupole moment (field-independent basis, Debye-Ang):
   XX=              6.8619   YY=             -3.5484   ZZ=             -3.3135
   XY=             -9.0086   XZ=              5.6184   YZ=              3.3291
 Octapole moment (field-independent basis, Debye-Ang**2):
  XXX=             -6.6131  YYY=            -41.9671  ZZZ=            -76.6676  XYY=             -6.5732
  XXY=            -13.5498  XXZ=            -26.5514  XZZ=             28.6033  YZZ=             11.2475
  YYZ=            -20.9867  XYZ=             -7.7846
 Hexadecapole moment (field-independent basis, Debye-Ang**3):
 XXXX=           -844.1286 YYYY=           -237.2462 ZZZZ=           -539.9815 XXXY=           -145.0862
 XXXZ=            116.3763 YYYX=           -107.5480 YYYZ=             59.3858 ZZZX=            181.3172
 ZZZY=             86.8538 XXYY=           -209.9909 XXZZ=           -244.1776 YYZZ=           -115.8480
 XXYZ=             26.9306 YYXZ=             48.3087 ZZXY=            -44.1193
 N-N= 4.318410830191D+02 E-N=-1.935495552438D+03  KE= 4.563208907710D+02
 D1PCM: PCM CHGder 1st derivatives, ID1Alg=3 FixD1E=F DoIter=F DoCFld=F I1PDM=0.
 Calling FoFJK, ICntrl=      2127 FMM=F ISym2X=0 I1Cent= 0 IOpClX= 0 NMat=1 NMatS=1 NMatT=0.
 -------------------------------------------------------------------
 Center     Atomic                   Forces (Hartrees/Bohr)
 Number     Number              X              Y              Z
 -------------------------------------------------------------------
      1        6          -0.000896924   -0.002216579    0.000283159
      2        6          -0.005972727   -0.001993941   -0.001983774
      3        6          -0.006091364   -0.004310801    0.001471222
      4        6           0.001723500   -0.004162605   -0.006111140
      5        6          -0.003635934    0.011226471    0.006110660
      6        6           0.002992254   -0.002514108   -0.000318719
      7        8          -0.001348776   -0.000556327    0.001705929
      8        8           0.004890093    0.007533571   -0.001374288
      9        8           0.008281414   -0.003406326    0.000804046
     10        1           0.000010251   -0.000132557   -0.000040339
     11        1          -0.000364840   -0.000579723   -0.000191598
     12        1           0.001124078    0.002058947   -0.000040138
     13        1           0.000011485   -0.000038436    0.000022303
     14        1          -0.000420900   -0.000548964   -0.000357789
     15        1          -0.000301611   -0.000358621    0.000020467
 -------------------------------------------------------------------
 Cartesian Forces:  Max     0.011226471 RMS     0.003438776

 GradGradGradGradGradGradGradGradGradGradGradGradGradGradGradGradGradGrad
 Berny optimization.
 Internal  Forces:  Max     0.016851128 RMS     0.004477895
 Search for a local minimum.
 Step number   1 out of a maximum of   77
 All quantities printed in internal units (Hartrees-Bohrs-Radians)
 Mixed Optimization -- RFO/linear search
 Second derivative matrix not updated -- first step.
 ITU=  0
     Eigenvalues ---    0.00936   0.01310   0.01487   0.01489   0.02042
     Eigenvalues ---    0.02216   0.02285   0.02379   0.02440   0.02663
     Eigenvalues ---    0.06855   0.07468   0.11159   0.13632   0.15948
     Eigenvalues ---    0.15996   0.16000   0.16000   0.21472   0.22001
     Eigenvalues ---    0.22015   0.22303   0.24087   0.24987   0.33439
     Eigenvalues ---    0.33761   0.34707   0.35046   0.36212   0.36483
     Eigenvalues ---    0.38846   0.41158   0.42000   0.45037   0.50735
     Eigenvalues ---    0.52287   0.53933   0.54858   0.99793
 RFO step:  Lambda=-1.42133387D-02 EMin= 9.35600748D-03
 Linear search not attempted -- first point.
 Iteration  1 RMS(Cart)=  0.14564465 RMS(Int)=  0.01329014
 Iteration  2 RMS(Cart)=  0.02442913 RMS(Int)=  0.00176446
 Iteration  3 RMS(Cart)=  0.00072352 RMS(Int)=  0.00172979
 Iteration  4 RMS(Cart)=  0.00000129 RMS(Int)=  0.00172979
 Iteration  5 RMS(Cart)=  0.00000000 RMS(Int)=  0.00172979
 Variable       Old X    -DE/DX   Delta X   Delta X   Delta X     New X
                                 (Linear)    (Quad)   (Total)
    R1        2.73153   0.00337   0.00000   0.00836   0.00836   2.73989
    R2        2.28722   0.00149   0.00000   0.00147   0.00147   2.28869
    R3        2.08288  -0.00007   0.00000  -0.00019  -0.00019   2.08269
    R4        2.58136  -0.00163   0.00000  -0.00012  -0.00143   2.57992
    R5        2.55095   0.00306   0.00000   0.00641   0.00558   2.55652
    R6        2.65810   0.00787   0.00000   0.01807   0.01810   2.67620
    R7        2.03751   0.00009   0.00000   0.00024   0.00024   2.03775
    R8        2.57791   0.00411   0.00000   0.00527   0.00658   2.58448
    R9        2.03333   0.00126   0.00000   0.00333   0.00333   2.03667
   R10        2.81035   0.00875   0.00000   0.02487   0.02487   2.83523
   R11        2.56578  -0.00018   0.00000  -0.00265  -0.00184   2.56393
   R12        2.70010  -0.00273   0.00000  -0.00641  -0.00641   2.69369
   R13        2.06154   0.00001   0.00000   0.00003   0.00003   2.06157
   R14        2.05600  -0.00023   0.00000  -0.00062  -0.00062   2.05538
   R15        1.81958   0.00002   0.00000   0.00004   0.00004   1.81962
    A1        2.16246   0.00255   0.00000   0.01092   0.01091   2.17337
    A2        1.99424  -0.00126   0.00000  -0.00531  -0.00532   1.98892
    A3        2.12634  -0.00129   0.00000  -0.00550  -0.00550   2.12084
    A4        2.27373   0.00139   0.00000   0.00408   0.00458   2.27831
    A5        2.07682   0.00227   0.00000   0.00750   0.00802   2.08483
    A6        1.93215  -0.00364   0.00000  -0.01112  -0.01224   1.91991
    A7        1.84823   0.00040   0.00000   0.00458   0.00412   1.85235
    A8        2.19615  -0.00042   0.00000  -0.00339  -0.00326   2.19288
    A9        2.23864   0.00003   0.00000  -0.00081  -0.00069   2.23795
   A10        1.86088   0.00188   0.00000   0.00079   0.00136   1.86224
   A11        2.22863  -0.00037   0.00000   0.00534   0.00282   2.23145
   A12        2.19183  -0.00134   0.00000  -0.00043  -0.00291   2.18892
   A13        2.19072   0.01352   0.00000   0.09018   0.08432   2.27504
   A14        1.92077  -0.00625   0.00000  -0.00689  -0.01168   1.90909
   A15        2.00390  -0.00207   0.00000   0.02307   0.01492   2.01882
   A16        1.83808   0.01685   0.00000   0.07662   0.07653   1.91461
   A17        1.97209  -0.00500   0.00000  -0.02496  -0.02509   1.94700
   A18        1.93117  -0.00346   0.00000  -0.01324  -0.01390   1.91728
   A19        1.94204  -0.00567   0.00000  -0.02147  -0.02128   1.92076
   A20        1.86608  -0.00361   0.00000  -0.00358  -0.00391   1.86217
   A21        1.91069   0.00124   0.00000  -0.01009  -0.01065   1.90004
   A22        1.86083   0.00777   0.00000   0.01850   0.01973   1.88057
   A23        1.89421  -0.00006   0.00000  -0.00037  -0.00037   1.89384
    D1        3.12833  -0.00056   0.00000  -0.01122  -0.01104   3.11729
    D2       -0.05002   0.00041   0.00000   0.00632   0.00614  -0.04388
    D3       -0.03164  -0.00036   0.00000  -0.00453  -0.00435  -0.03598
    D4        3.07320   0.00061   0.00000   0.01301   0.01283   3.08603
    D5        3.09514   0.00114   0.00000   0.02907   0.02878   3.12393
    D6       -0.02800   0.00047   0.00000   0.00849   0.00830  -0.01971
    D7       -0.01208   0.00014   0.00000   0.01239   0.01256   0.00048
    D8       -3.13523  -0.00053   0.00000  -0.00819  -0.00793   3.14003
    D9       -3.06768  -0.00220   0.00000  -0.07741  -0.07840   3.13711
   D10        0.04393  -0.00133   0.00000  -0.06287  -0.06425  -0.02032
   D11       -0.02444   0.00131   0.00000   0.04325   0.04372   0.01928
   D12       -3.10324  -0.00164   0.00000  -0.05392  -0.05420   3.12574
   D13        3.09811   0.00199   0.00000   0.06447   0.06488  -3.12020
   D14        0.01931  -0.00097   0.00000  -0.03271  -0.03304  -0.01374
   D15       -2.46143  -0.00924   0.00000  -0.26389  -0.26474  -2.72617
   D16        0.05257  -0.00247   0.00000  -0.08431  -0.08482  -0.03225
   D17        0.61907  -0.00633   0.00000  -0.16908  -0.16961   0.44945
   D18        3.13307   0.00045   0.00000   0.01050   0.01031  -3.13981
   D19        1.17671   0.00452   0.00000   0.13038   0.13234   1.30905
   D20       -2.98322   0.00585   0.00000   0.14047   0.14202  -2.84120
   D21       -0.83375   0.00122   0.00000   0.09915   0.10112  -0.73263
   D22       -1.31171  -0.00162   0.00000  -0.04897  -0.05066  -1.36236
   D23        0.81155  -0.00029   0.00000  -0.03888  -0.04098   0.77057
   D24        2.96102  -0.00491   0.00000  -0.08020  -0.08188   2.87914
   D25       -0.05983   0.00234   0.00000   0.09109   0.09269   0.03286
   D26        2.52723   0.01470   0.00000   0.27768   0.27251   2.79973
   D27        1.31147  -0.00037   0.00000  -0.00422  -0.00451   1.30696
   D28       -0.83119  -0.00177   0.00000  -0.01041  -0.01034  -0.84153
   D29       -2.91679   0.00219   0.00000   0.01630   0.01652  -2.90027
         Item               Value     Threshold  Converged?
 Maximum Force            0.016851     0.000015     NO 
 RMS     Force            0.004478     0.000010     NO 
 Maximum Displacement     0.699050     0.000060     NO 
 RMS     Displacement     0.162733     0.000040     NO 
 Predicted change in Energy=-9.271205D-03
 GradGradGradGradGradGradGradGradGradGradGradGradGradGradGradGradGradGrad

                          Input orientation:                          
 ---------------------------------------------------------------------
 Center     Atomic      Atomic             Coordinates (Angstroms)
 Number     Number       Type             X           Y           Z
 ---------------------------------------------------------------------
      1          6           0       -2.190795   -0.236659    1.440507
      2          6           0       -1.176182    0.079019    0.454057
      3          6           0       -1.276337    0.716001   -0.749311
      4          6           0        0.036574    0.767610   -1.277683
      5          6           0        0.848384    0.137403   -0.375314
      6          6           0        2.322517    0.275582   -0.132722
      7          8           0       -1.981875   -0.834049    2.473121
      8          8           0        0.111681   -0.259690    0.692593
      9          8           0        2.583919    1.496409    0.555115
     10          1           0       -3.197492    0.128209    1.179577
     11          1           0       -2.187012    1.092629   -1.187058
     12          1           0        0.354559    1.184156   -2.219455
     13          1           0        2.319051    1.391784    1.474941
     14          1           0        2.715473   -0.566931    0.438153
     15          1           0        2.849355    0.333095   -1.082532
 ---------------------------------------------------------------------
                    Distance matrix (angstroms):
                    1          2          3          4          5
     1  C    0.000000
     2  C    1.449888   0.000000
     3  C    2.557166   1.365237   0.000000
     4  C    3.654898   2.223479   1.416183   0.000000
     5  C    3.560019   2.188637   2.233627   1.367650   0.000000
     6  C    4.807018   3.553004   3.677757   2.603567   1.500337
     7  O    1.211122   2.357849   3.644792   4.550602   4.131303
     8  O    2.421012   1.352854   2.226579   2.223280   1.356775
     9  O    5.156097   4.019648   4.148752   3.221687   2.392630
    10  H    1.102112   2.148137   2.785130   4.111708   4.334383
    11  H    2.944676   2.177714   1.078332   2.249041   3.284054
    12  H    4.678981   3.272945   2.245065   1.077757   2.177249
    13  H    4.794969   3.870686   4.281448   3.629909   2.675776
    14  H    5.018492   3.944932   4.357813   3.449869   2.154957
    15  H    5.665109   4.316319   4.156800   2.852827   2.131277
                    6          7          8          9         10
     6  C    0.000000
     7  O    5.152619   0.000000
     8  O    2.419805   2.807693   0.000000
     9  O    1.425437   5.473231   3.035580   0.000000
    10  H    5.675768   2.019139   3.367231   5.973830   0.000000
    11  H    4.702663   4.141386   3.262797   5.095095   2.748115
    12  H    3.008791   5.617148   3.259403   3.572925   5.028470
    13  H    1.957166   4.944559   2.865644   0.962902   5.667108
    14  H    1.090936   5.126161   2.634174   2.070835   5.999674
    15  H    1.087661   6.111111   3.316221   2.026239   6.459371
                   11         12         13         14         15
    11  H    0.000000
    12  H    2.744778   0.000000
    13  H    5.242170   4.189380   0.000000
    14  H    5.424925   3.962714   2.251365   0.000000
    15  H    5.094390   2.870698   2.818282   1.772133   0.000000
 Symmetry turned off by external request.
 Stoichiometry    C6H6O3
 Framework group  C1[X(C6H6O3)]
 Deg. of freedom    39
 Full point group                 C1      NOp   1
 Rotational constants (GHZ):      3.3328813      1.0895349      0.8922319
 Standard basis: 6-311+G(2df,p) (5D, 7F)
 Integral buffers will be    131072 words long.
 Raffenetti 2 integral format.
 Two-electron integral symmetry is turned off.
   342 basis functions,   516 primitive gaussians,   387 cartesian basis functions
    33 alpha electrons       33 beta electrons
       nuclear repulsion energy       426.1123404063 Hartrees.
 NAtoms=   15 NActive=   15 NUniq=   15 SFac= 1.00D+00 NAtFMM=   50 NAOKFM=F Big=F
 ------------------------------------------------------------------------------
 Polarizable Continuum Model (PCM)
 =================================
 Model                : PCM.
 Atomic radii         : UFF (Universal Force Field).
 Polarization charges : Total charges.
 Charge compensation  : None.
 Solution method      : Matrix inversion.
 Cavity type          : Scaled VdW (van der Waals Surface) (Alpha=1.100).
 Cavity algorithm     : GePol (No added spheres)
                        Default sphere list used, NSphG=   15.
                        Lebedev-Laikov grids with approx.  5.0 points / Ang**2.
                        Smoothing algorithm: Karplus/York (Gamma=1.0000).
                        Polarization charges: spherical gaussians, with
                                              point-specific exponents (IZeta= 3).
                        Self-potential: point-specific (ISelfS= 7).
                        Self-field    : sphere-specific E.n sum rule (ISelfD= 2).
 1st derivatives      : Analytical E(r).r(x)/FMM algorithm (CHGder, D1EAlg=3).
                        Cavity 1st derivative terms included.
 Solvent              : Ethanol, Eps=  24.852000 Eps(inf)=   1.852593
 ------------------------------------------------------------------------------
 Spheres list:
 ISph  on   Nord    Re0     Alpha      Xe            Ye            Ze
    1   C      1    1.926   1.100     -2.190795     -0.236659      1.440507
    2   C      2    1.926   1.100     -1.176182      0.079019      0.454057
    3   C      3    1.926   1.100     -1.276337      0.716001     -0.749311
    4   C      4    1.926   1.100      0.036574      0.767610     -1.277683
    5   C      5    1.926   1.100      0.848384      0.137403     -0.375314
    6   C      6    1.926   1.100      2.322517      0.275582     -0.132722
    7   O      7    1.750   1.100     -1.981875     -0.834049      2.473121
    8   O      8    1.750   1.100      0.111681     -0.259690      0.692593
    9   O      9    1.750   1.100      2.583919      1.496409      0.555115
   10   H     10    1.443   1.100     -3.197492      0.128209      1.179577
   11   H     11    1.443   1.100     -2.187012      1.092629     -1.187058
   12   H     12    1.443   1.100      0.354559      1.184156     -2.219455
   13   H     13    1.443   1.100      2.319051      1.391784      1.474941
   14   H     14    1.443   1.100      2.715473     -0.566931      0.438153
   15   H     15    1.443   1.100      2.849355      0.333095     -1.082532
 ------------------------------------------------------------------------------
 One-electron integrals computed using PRISM.
 NBasis=   342 RedAO= T  NBF=   342
 NBsUse=   342 1.00D-06 NBFU=   342
 Initial guess read from the read-write file.
 B after Tr=     0.000000    0.000000    0.000000
         Rot=    1.000000    0.000000    0.000000    0.000000 Ang=   0.00 deg.
 Harris functional with IExCor= 1009 diagonalized for initial guess.
 ExpMin= 4.38D-02 ExpMax= 8.59D+03 ExpMxC= 1.30D+03 IAcc=3 IRadAn=         5 AccDes= 0.00D+00
 HarFok:  IExCor= 1009 AccDes= 0.00D+00 IRadAn=         5 IDoV= 1
 ScaDFX=  1.000000  1.000000  1.000000  1.000000
 FoFCou: FMM=F IPFlag=           0 FMFlag=      100000 FMFlg1=           0
         NFxFlg=           0 DoJE=T BraDBF=F KetDBF=T FulRan=T
         Omega=  0.000000  0.000000  1.000000  0.000000  0.000000 ICntrl=     500 IOpCl=  0
         NMat0=    1 NMatS0=    1 NMatT0=    0 NMatD0=    1 NMtDS0=    0 NMtDT0=    0
         I1Cent=           4 NGrid=           0.
 Symmetry not used in FoFCou.
 Requested convergence on RMS density matrix=1.00D-08 within 128 cycles.
 Requested convergence on MAX density matrix=1.00D-06.
 Requested convergence on             energy=1.00D-06.
 No special actions if energy rises.
 Error on total polarization charges =  0.01108
 SCF Done:  E(RM062X) =  -457.862695585     A.U. after   14 cycles
             Convg  =    0.5621D-08             -V/T =  2.0036
 QCSCF skips out because SCF is already converged.
 D1PCM: PCM CHGder 1st derivatives, ID1Alg=3 FixD1E=F DoIter=F DoCFld=F I1PDM=0.
 Calling FoFJK, ICntrl=      2127 FMM=F ISym2X=0 I1Cent= 0 IOpClX= 0 NMat=1 NMatS=1 NMatT=0.
 -------------------------------------------------------------------
 Center     Atomic                   Forces (Hartrees/Bohr)
 Number     Number              X              Y              Z
 -------------------------------------------------------------------
      1        6           0.000345885   -0.001004796    0.001135714
      2        6           0.001220940    0.000942353   -0.001624649
      3        6          -0.001142442   -0.002179752    0.000398960
      4        6           0.002742484   -0.008580844   -0.004613217
      5        6          -0.002963952    0.018915979    0.011112597
      6        6          -0.001789628   -0.002041978   -0.000642527
      7        8          -0.000098910    0.000586189   -0.001055667
      8        8           0.003588328   -0.003050184   -0.001207348
      9        8           0.000229283   -0.003501833   -0.001430502
     10        1          -0.000021407   -0.000225422   -0.000502514
     11        1           0.000243464    0.000211651   -0.000245441
     12        1          -0.000095769    0.001745069    0.000800374
     13        1          -0.000316350    0.000267427   -0.000336463
     14        1          -0.001362591   -0.002065843   -0.001061022
     15        1          -0.000579336   -0.000018015   -0.000728293
 -------------------------------------------------------------------
 Cartesian Forces:  Max     0.018915979 RMS     0.003847056

 GradGradGradGradGradGradGradGradGradGradGradGradGradGradGradGradGradGrad
 Berny optimization.
 Using GEDIIS/GDIIS optimizer.
 Internal  Forces:  Max     0.005109353 RMS     0.001787099
 Search for a local minimum.
 Step number   2 out of a maximum of   77
 All quantities printed in internal units (Hartrees-Bohrs-Radians)
 Mixed Optimization -- RFO/linear search
 Update second derivatives using D2CorX and points    1    2
 DE= -9.52D-03 DEPred=-9.27D-03 R= 1.03D+00
 SS=  1.41D+00  RLast= 5.36D-01 DXNew= 5.0454D-01 1.6068D+00
 Trust test= 1.03D+00 RLast= 5.36D-01 DXMaxT set to 5.05D-01
 ITU=  1  0
 Use linear search instead of GDIIS.
     Eigenvalues ---    0.00936   0.01307   0.01474   0.01488   0.01594
     Eigenvalues ---    0.02036   0.02213   0.02325   0.02412   0.02792
     Eigenvalues ---    0.06444   0.07387   0.11606   0.13971   0.15990
     Eigenvalues ---    0.16000   0.16000   0.16009   0.21141   0.22006
     Eigenvalues ---    0.22657   0.22816   0.24994   0.25377   0.33439
     Eigenvalues ---    0.34695   0.35027   0.35306   0.36212   0.36494
     Eigenvalues ---    0.38899   0.41082   0.42156   0.45631   0.50717
     Eigenvalues ---    0.52642   0.54029   0.54860   0.99855
 RFO step:  Lambda=-4.68385042D-03 EMin= 9.35526172D-03
 Quartic linear search produced a step of  0.59837.
 Iteration  1 RMS(Cart)=  0.09846427 RMS(Int)=  0.01339918
 Iteration  2 RMS(Cart)=  0.02136743 RMS(Int)=  0.00440791
 Iteration  3 RMS(Cart)=  0.00043439 RMS(Int)=  0.00439941
 Iteration  4 RMS(Cart)=  0.00000209 RMS(Int)=  0.00439941
 Iteration  5 RMS(Cart)=  0.00000001 RMS(Int)=  0.00439941
 Variable       Old X    -DE/DX   Delta X   Delta X   Delta X     New X
                                 (Linear)    (Quad)   (Total)
    R1        2.73989  -0.00030   0.00500  -0.00451   0.00049   2.74038
    R2        2.28869  -0.00120   0.00088  -0.00244  -0.00156   2.28713
    R3        2.08269   0.00006  -0.00011   0.00036   0.00025   2.08294
    R4        2.57992  -0.00113  -0.00086   0.00108  -0.00322   2.57671
    R5        2.55652  -0.00042   0.00334  -0.00217  -0.00044   2.55609
    R6        2.67620  -0.00028   0.01083  -0.00682   0.00348   2.67967
    R7        2.03775  -0.00003   0.00015  -0.00023  -0.00009   2.03767
    R8        2.58448  -0.00224   0.00394  -0.01241  -0.00533   2.57915
    R9        2.03667  -0.00005   0.00199  -0.00155   0.00045   2.03711
   R10        2.83523  -0.00511   0.01488  -0.03306  -0.01817   2.81705
   R11        2.56393  -0.00301  -0.00110  -0.01096  -0.00959   2.55434
   R12        2.69369  -0.00364  -0.00384  -0.01103  -0.01486   2.67882
   R13        2.06157   0.00055   0.00002   0.00240   0.00242   2.06399
   R14        2.05538   0.00036  -0.00037   0.00180   0.00143   2.05681
   R15        1.81962  -0.00026   0.00002  -0.00076  -0.00073   1.81889
    A1        2.17337   0.00006   0.00653  -0.00396   0.00241   2.17578
    A2        1.98892  -0.00037  -0.00318  -0.00116  -0.00450   1.98442
    A3        2.12084   0.00032  -0.00329   0.00541   0.00195   2.12279
    A4        2.27831  -0.00031   0.00274  -0.00623  -0.00291   2.27540
    A5        2.08483  -0.00039   0.00480  -0.00807  -0.00271   2.08212
    A6        1.91991   0.00071  -0.00733   0.01475   0.00557   1.92548
    A7        1.85235  -0.00070   0.00247  -0.00084   0.00067   1.85302
    A8        2.19288   0.00075  -0.00195   0.00465   0.00300   2.19589
    A9        2.23795  -0.00004  -0.00041  -0.00383  -0.00394   2.23401
   A10        1.86224  -0.00068   0.00081  -0.01638  -0.01126   1.85098
   A11        2.23145  -0.00013   0.00169   0.00328   0.00130   2.23275
   A12        2.18892   0.00080  -0.00174   0.01444   0.00917   2.19809
   A13        2.27504   0.00293   0.05046   0.02543   0.05542   2.33046
   A14        1.90909   0.00194  -0.00699   0.03437   0.01709   1.92618
   A15        2.01882  -0.00284   0.00893   0.01350   0.00034   2.01916
   A16        1.91461   0.00231   0.04579  -0.01290   0.03292   1.94753
   A17        1.94700  -0.00283  -0.01501  -0.02048  -0.03590   1.91110
   A18        1.91728  -0.00096  -0.00832  -0.00683  -0.01592   1.90136
   A19        1.92076   0.00119  -0.01273   0.02997   0.01763   1.93839
   A20        1.86217  -0.00012  -0.00234   0.00772   0.00525   1.86742
   A21        1.90004   0.00052  -0.00637   0.00392  -0.00343   1.89661
   A22        1.88057  -0.00125   0.01181  -0.02874  -0.01146   1.86911
   A23        1.89384   0.00018  -0.00022   0.00183   0.00161   1.89545
    D1        3.11729  -0.00037  -0.00660  -0.01490  -0.02099   3.09630
    D2       -0.04388   0.00037   0.00367   0.01812   0.02128  -0.02260
    D3       -0.03598   0.00004  -0.00260   0.01361   0.01152  -0.02447
    D4        3.08603   0.00078   0.00768   0.04663   0.05379   3.13982
    D5        3.12393   0.00056   0.01722   0.02283   0.04005  -3.11921
    D6       -0.01971   0.00036   0.00496   0.01433   0.01894  -0.00077
    D7        0.00048  -0.00012   0.00751  -0.00759   0.00080   0.00128
    D8        3.14003  -0.00031  -0.00474  -0.01609  -0.02031   3.11972
    D9        3.13711  -0.00017  -0.04691   0.03138  -0.01721   3.11990
   D10       -0.02032   0.00042  -0.03845   0.05792   0.01706  -0.00326
   D11        0.01928  -0.00023   0.02616  -0.04484  -0.01810   0.00117
   D12        3.12574  -0.00029  -0.03243  -0.00356  -0.03693   3.08881
   D13       -3.12020  -0.00003   0.03882  -0.03606   0.00361  -3.11660
   D14       -0.01374  -0.00010  -0.01977   0.00522  -0.01522  -0.02896
   D15       -2.72617  -0.00412  -0.15841  -0.11670  -0.27872  -3.00489
   D16       -0.03225   0.00044  -0.05075   0.08071   0.02901  -0.00324
   D17        0.44945  -0.00404  -0.10149  -0.15644  -0.26018   0.18927
   D18       -3.13981   0.00053   0.00617   0.04097   0.04755  -3.09226
   D19        1.30905   0.00320   0.07919   0.12672   0.20773   1.51678
   D20       -2.84120   0.00441   0.08498   0.14203   0.22805  -2.61316
   D21       -0.73263   0.00256   0.06051   0.12893   0.19149  -0.54114
   D22       -1.36236  -0.00267  -0.03031  -0.08506  -0.11682  -1.47918
   D23        0.77057  -0.00146  -0.02452  -0.06974  -0.09651   0.67406
   D24        2.87914  -0.00331  -0.04900  -0.08285  -0.13307   2.74607
   D25        0.03286  -0.00053   0.05546  -0.08644  -0.02882   0.00404
   D26        2.79973   0.00472   0.16306   0.08120   0.23344   3.03317
   D27        1.30696  -0.00068  -0.00270  -0.02437  -0.02715   1.27981
   D28       -0.84153   0.00054  -0.00619  -0.00998  -0.01633  -0.85787
   D29       -2.90027  -0.00064   0.00988  -0.03505  -0.02491  -2.92518
         Item               Value     Threshold  Converged?
 Maximum Force            0.005109     0.000015     NO 
 RMS     Force            0.001787     0.000010     NO 
 Maximum Displacement     0.423017     0.000060     NO 
 RMS     Displacement     0.116813     0.000040     NO 
 Predicted change in Energy=-4.079574D-03
 GradGradGradGradGradGradGradGradGradGradGradGradGradGradGradGradGradGrad

                          Input orientation:                          
 ---------------------------------------------------------------------
 Center     Atomic      Atomic             Coordinates (Angstroms)
 Number     Number       Type             X           Y           Z
 ---------------------------------------------------------------------
      1          6           0       -2.215236   -0.269886    1.420434
      2          6           0       -1.192903    0.122022    0.469553
      3          6           0       -1.305419    0.702533   -0.759095
      4          6           0        0.016011    0.833233   -1.256619
      5          6           0        0.834714    0.320279   -0.292588
      6          6           0        2.314286    0.286086   -0.113858
      7          8           0       -1.998869   -0.823921    2.474498
      8          8           0        0.107035   -0.111368    0.761573
      9          8           0        2.787713    1.451555    0.539638
     10          1           0       -3.240445   -0.035271    1.090520
     11          1           0       -2.227968    0.976885   -1.245238
     12          1           0        0.327978    1.207437   -2.218242
     13          1           0        2.542902    1.403191    1.469241
     14          1           0        2.594173   -0.614212    0.437565
     15          1           0        2.787848    0.256005   -1.093392
 ---------------------------------------------------------------------
                    Distance matrix (angstroms):
                    1          2          3          4          5
     1  C    0.000000
     2  C    1.450148   0.000000
     3  C    2.554156   1.363536   0.000000
     4  C    3.655400   2.224177   1.418023   0.000000
     5  C    3.547525   2.175178   2.223492   1.364827   0.000000
     6  C    4.814533   3.559166   3.700273   2.624374   1.490720
     7  O    1.210298   2.358854   3.642397   4.552706   4.122517
     8  O    2.419126   1.352623   2.229326   2.230170   1.351699
     9  O    5.363642   4.197366   4.359068   3.360238   2.405533
    10  H    1.102243   2.145406   2.776645   4.107050   4.318139
    11  H    2.942857   2.177765   1.078286   2.248600   3.273942
    12  H    4.678716   3.273446   2.247670   1.077994   2.179903
    13  H    5.043952   4.073944   4.501775   3.760365   2.682284
    14  H    4.920874   3.858110   4.286330   3.407679   2.121813
    15  H    5.623764   4.278683   4.131098   2.836003   2.111906
                    6          7          8          9         10
     6  C    0.000000
     7  O    5.151215   0.000000
     8  O    2.407552   2.806541   0.000000
     9  O    1.417571   5.642060   3.110951   0.000000
    10  H    5.692875   2.019622   3.364464   6.233202   0.000000
    11  H    4.731732   4.139061   3.265552   5.344918   2.739587
    12  H    3.036896   5.618046   3.266093   3.703484   5.022536
    13  H    1.950998   5.157350   2.954341   0.962514   5.971575
    14  H    1.092219   5.028827   2.558063   2.077322   5.899515
    15  H    1.088417   6.067020   3.280642   2.023889   6.418303
                   11         12         13         14         15
    11  H    0.000000
    12  H    2.744585   0.000000
    13  H    5.505573   4.306012   0.000000
    14  H    5.349435   3.937938   2.266473   0.000000
    15  H    5.069628   2.867311   2.818355   1.771615   0.000000
 Symmetry turned off by external request.
 Stoichiometry    C6H6O3
 Framework group  C1[X(C6H6O3)]
 Deg. of freedom    39
 Full point group                 C1      NOp   1
 Rotational constants (GHZ):      3.3881588      1.0620894      0.8588971
 Standard basis: 6-311+G(2df,p) (5D, 7F)
 Integral buffers will be    131072 words long.
 Raffenetti 2 integral format.
 Two-electron integral symmetry is turned off.
   342 basis functions,   516 primitive gaussians,   387 cartesian basis functions
    33 alpha electrons       33 beta electrons
       nuclear repulsion energy       424.6987454039 Hartrees.
 NAtoms=   15 NActive=   15 NUniq=   15 SFac= 1.00D+00 NAtFMM=   50 NAOKFM=F Big=F
 ------------------------------------------------------------------------------
 Polarizable Continuum Model (PCM)
 =================================
 Model                : PCM.
 Atomic radii         : UFF (Universal Force Field).
 Polarization charges : Total charges.
 Charge compensation  : None.
 Solution method      : Matrix inversion.
 Cavity type          : Scaled VdW (van der Waals Surface) (Alpha=1.100).
 Cavity algorithm     : GePol (No added spheres)
                        Default sphere list used, NSphG=   15.
                        Lebedev-Laikov grids with approx.  5.0 points / Ang**2.
                        Smoothing algorithm: Karplus/York (Gamma=1.0000).
                        Polarization charges: spherical gaussians, with
                                              point-specific exponents (IZeta= 3).
                        Self-potential: point-specific (ISelfS= 7).
                        Self-field    : sphere-specific E.n sum rule (ISelfD= 2).
 1st derivatives      : Analytical E(r).r(x)/FMM algorithm (CHGder, D1EAlg=3).
                        Cavity 1st derivative terms included.
 Solvent              : Ethanol, Eps=  24.852000 Eps(inf)=   1.852593
 ------------------------------------------------------------------------------
 Spheres list:
 ISph  on   Nord    Re0     Alpha      Xe            Ye            Ze
    1   C      1    1.926   1.100     -2.215236     -0.269886      1.420434
    2   C      2    1.926   1.100     -1.192903      0.122022      0.469553
    3   C      3    1.926   1.100     -1.305419      0.702533     -0.759095
    4   C      4    1.926   1.100      0.016011      0.833233     -1.256619
    5   C      5    1.926   1.100      0.834714      0.320279     -0.292588
    6   C      6    1.926   1.100      2.314286      0.286086     -0.113858
    7   O      7    1.750   1.100     -1.998869     -0.823921      2.474498
    8   O      8    1.750   1.100      0.107035     -0.111368      0.761573
    9   O      9    1.750   1.100      2.787713      1.451555      0.539638
   10   H     10    1.443   1.100     -3.240445     -0.035271      1.090520
   11   H     11    1.443   1.100     -2.227968      0.976885     -1.245238
   12   H     12    1.443   1.100      0.327978      1.207437     -2.218242
   13   H     13    1.443   1.100      2.542902      1.403191      1.469241
   14   H     14    1.443   1.100      2.594173     -0.614212      0.437565
   15   H     15    1.443   1.100      2.787848      0.256005     -1.093392
 ------------------------------------------------------------------------------
 One-electron integrals computed using PRISM.
 NBasis=   342 RedAO= T  NBF=   342
 NBsUse=   342 1.00D-06 NBFU=   342
 Initial guess read from the read-write file.
 B after Tr=     0.000000    0.000000    0.000000
         Rot=    1.000000    0.000000    0.000000    0.000000 Ang=   0.00 deg.
 Harris functional with IExCor= 1009 diagonalized for initial guess.
 ExpMin= 4.38D-02 ExpMax= 8.59D+03 ExpMxC= 1.30D+03 IAcc=3 IRadAn=         5 AccDes= 0.00D+00
 HarFok:  IExCor= 1009 AccDes= 0.00D+00 IRadAn=         5 IDoV= 1
 ScaDFX=  1.000000  1.000000  1.000000  1.000000
 FoFCou: FMM=F IPFlag=           0 FMFlag=      100000 FMFlg1=           0
         NFxFlg=           0 DoJE=T BraDBF=F KetDBF=T FulRan=T
         Omega=  0.000000  0.000000  1.000000  0.000000  0.000000 ICntrl=     500 IOpCl=  0
         NMat0=    1 NMatS0=    1 NMatT0=    0 NMatD0=    1 NMtDS0=    0 NMtDT0=    0
         I1Cent=           4 NGrid=           0.
 Symmetry not used in FoFCou.
 Requested convergence on RMS density matrix=1.00D-08 within 128 cycles.
 Requested convergence on MAX density matrix=1.00D-06.
 Requested convergence on             energy=1.00D-06.
 No special actions if energy rises.
 Error on total polarization charges =  0.01116
 SCF Done:  E(RM062X) =  -457.866795733     A.U. after   13 cycles
             Convg  =    0.5908D-08             -V/T =  2.0035
 QCSCF skips out because SCF is already converged.
 D1PCM: PCM CHGder 1st derivatives, ID1Alg=3 FixD1E=F DoIter=F DoCFld=F I1PDM=0.
 Calling FoFJK, ICntrl=      2127 FMM=F ISym2X=0 I1Cent= 0 IOpClX= 0 NMat=1 NMatS=1 NMatT=0.
 -------------------------------------------------------------------
 Center     Atomic                   Forces (Hartrees/Bohr)
 Number     Number              X              Y              Z
 -------------------------------------------------------------------
      1        6          -0.000039823   -0.001603853   -0.001889548
      2        6          -0.002921031    0.000288438    0.001689877
      3        6          -0.000663772   -0.001526802   -0.000508148
      4        6           0.002841315   -0.004834319   -0.000204128
      5        6          -0.000689196    0.003418852    0.003266897
      6        6          -0.001096109   -0.001005540   -0.003300236
      7        8           0.000255615    0.000778400    0.000551578
      8        8           0.000981847    0.001552845   -0.001989102
      9        8           0.000783226   -0.000549662    0.000721444
     10        1          -0.000184577    0.000656885    0.000393683
     11        1           0.000022933    0.000455986    0.000222462
     12        1           0.000083457    0.001800730    0.001308222
     13        1          -0.000120683    0.000561030    0.000089642
     14        1           0.000167497   -0.000535869   -0.000281555
     15        1           0.000579300    0.000542879   -0.000071090
 -------------------------------------------------------------------
 Cartesian Forces:  Max     0.004834319 RMS     0.001527681

 GradGradGradGradGradGradGradGradGradGradGradGradGradGradGradGradGradGrad
 Berny optimization.
 Using GEDIIS/GDIIS optimizer.
 Internal  Forces:  Max     0.002694602 RMS     0.000829172
 Search for a local minimum.
 Step number   3 out of a maximum of   77
 All quantities printed in internal units (Hartrees-Bohrs-Radians)
 Mixed Optimization -- En-DIIS/RFO-DIIS
 Update second derivatives using D2CorX and points    2    3
 DE= -4.10D-03 DEPred=-4.08D-03 R= 1.01D+00
 SS=  1.41D+00  RLast= 6.28D-01 DXNew= 8.4853D-01 1.8836D+00
 Trust test= 1.01D+00 RLast= 6.28D-01 DXMaxT set to 8.49D-01
 ITU=  1  1  0
 Use linear search instead of GDIIS.
     Eigenvalues ---    0.00874   0.01255   0.01344   0.01490   0.01700
     Eigenvalues ---    0.02034   0.02216   0.02389   0.02425   0.02656
     Eigenvalues ---    0.06260   0.07505   0.11747   0.14068   0.15968
     Eigenvalues ---    0.15995   0.15998   0.16021   0.21204   0.22014
     Eigenvalues ---    0.22878   0.24310   0.24995   0.26211   0.33439
     Eigenvalues ---    0.34700   0.35040   0.35453   0.36213   0.36493
     Eigenvalues ---    0.38898   0.41129   0.42260   0.45767   0.50889
     Eigenvalues ---    0.52551   0.54057   0.54862   0.99866
 RFO step:  Lambda=-8.25313883D-04 EMin= 8.73699434D-03
 Quartic linear search produced a step of  0.21727.
 Iteration  1 RMS(Cart)=  0.04179238 RMS(Int)=  0.00165021
 Iteration  2 RMS(Cart)=  0.00157757 RMS(Int)=  0.00105798
 Iteration  3 RMS(Cart)=  0.00000129 RMS(Int)=  0.00105798
 Iteration  4 RMS(Cart)=  0.00000000 RMS(Int)=  0.00105798
 Variable       Old X    -DE/DX   Delta X   Delta X   Delta X     New X
                                 (Linear)    (Quad)   (Total)
    R1        2.74038  -0.00059   0.00011  -0.00182  -0.00171   2.73867
    R2        2.28713   0.00017  -0.00034   0.00024  -0.00010   2.28703
    R3        2.08294   0.00019   0.00005   0.00068   0.00074   2.08367
    R4        2.57671  -0.00046  -0.00070  -0.00067  -0.00214   2.57457
    R5        2.55609   0.00175  -0.00010   0.00421   0.00376   2.55985
    R6        2.67967   0.00121   0.00076   0.00312   0.00376   2.68344
    R7        2.03767   0.00000  -0.00002  -0.00001  -0.00003   2.03764
    R8        2.57915  -0.00269  -0.00116  -0.00658  -0.00703   2.57212
    R9        2.03711  -0.00052   0.00010  -0.00171  -0.00161   2.03550
   R10        2.81705  -0.00001  -0.00395   0.00031  -0.00364   2.81342
   R11        2.55434  -0.00058  -0.00208  -0.00128  -0.00281   2.55153
   R12        2.67882   0.00061  -0.00323   0.00197  -0.00126   2.67756
   R13        2.06399   0.00034   0.00053   0.00114   0.00167   2.06566
   R14        2.05681   0.00030   0.00031   0.00102   0.00133   2.05814
   R15        1.81889   0.00009  -0.00016   0.00020   0.00004   1.81893
    A1        2.17578  -0.00033   0.00052  -0.00132  -0.00289   2.17289
    A2        1.98442   0.00034  -0.00098   0.00303  -0.00004   1.98438
    A3        2.12279   0.00003   0.00042   0.00060  -0.00108   2.12171
    A4        2.27540   0.00049  -0.00063   0.00161   0.00107   2.27646
    A5        2.08212   0.00112  -0.00059   0.00465   0.00415   2.08627
    A6        1.92548  -0.00161   0.00121  -0.00617  -0.00527   1.92021
    A7        1.85302  -0.00009   0.00015   0.00025   0.00017   1.85320
    A8        2.19589   0.00004   0.00065   0.00008   0.00065   2.19653
    A9        2.23401   0.00006  -0.00086   0.00038  -0.00056   2.23345
   A10        1.85098   0.00110  -0.00245   0.00403   0.00273   1.85371
   A11        2.23275  -0.00050   0.00028  -0.00091  -0.00141   2.23134
   A12        2.19809  -0.00056   0.00199  -0.00146  -0.00025   2.19784
   A13        2.33046  -0.00184   0.01204  -0.00706   0.00011   2.33057
   A14        1.92618  -0.00066   0.00371  -0.00431  -0.00276   1.92342
   A15        2.01916   0.00258   0.00007   0.01411   0.00924   2.02840
   A16        1.94753   0.00095   0.00715   0.00529   0.01245   1.95998
   A17        1.91110  -0.00044  -0.00780  -0.00269  -0.01057   1.90053
   A18        1.90136   0.00043  -0.00346   0.00543   0.00186   1.90322
   A19        1.93839  -0.00026   0.00383  -0.00227   0.00164   1.94003
   A20        1.86742  -0.00062   0.00114  -0.00381  -0.00269   1.86473
   A21        1.89661  -0.00007  -0.00075  -0.00194  -0.00284   1.89378
   A22        1.86911   0.00125  -0.00249   0.00619   0.00508   1.87418
   A23        1.89545   0.00084   0.00035   0.00628   0.00663   1.90208
    D1        3.09630   0.00094  -0.00456   0.07239   0.06781  -3.11908
    D2       -0.02260   0.00086   0.00462   0.06682   0.07128   0.04868
    D3       -0.02447  -0.00067   0.00250  -0.05305  -0.05038  -0.07485
    D4        3.13982  -0.00075   0.01169  -0.05861  -0.04691   3.09291
    D5       -3.11921  -0.00029   0.00870  -0.01662  -0.00788  -3.12709
    D6       -0.00077   0.00030   0.00411   0.01455   0.01864   0.01788
    D7        0.00128  -0.00019   0.00017  -0.01134  -0.01101  -0.00973
    D8        3.11972   0.00040  -0.00441   0.01983   0.01552   3.13524
    D9        3.11990   0.00013  -0.00374   0.01003   0.00612   3.12602
   D10       -0.00326   0.00005   0.00371   0.00544   0.00888   0.00562
   D11        0.00117   0.00026  -0.00393   0.01270   0.00887   0.01004
   D12        3.08881   0.00082  -0.00802   0.04571   0.03757   3.12638
   D13       -3.11660  -0.00035   0.00078  -0.01936  -0.01843  -3.13502
   D14       -0.02896   0.00022  -0.00331   0.01365   0.01027  -0.01869
   D15       -3.00489  -0.00120  -0.06056  -0.03685  -0.09788  -3.10277
   D16       -0.00324  -0.00024   0.00630  -0.00984  -0.00370  -0.00693
   D17        0.18927  -0.00175  -0.05653  -0.06903  -0.12582   0.06345
   D18       -3.09226  -0.00079   0.01033  -0.04202  -0.03164  -3.12390
   D19        1.51678   0.00086   0.04513   0.06305   0.10841   1.62519
   D20       -2.61316   0.00087   0.04955   0.06187   0.11148  -2.50168
   D21       -0.54114   0.00078   0.04160   0.06116   0.10301  -0.43814
   D22       -1.47918   0.00008  -0.02538   0.03616   0.01065  -1.46853
   D23        0.67406   0.00009  -0.02097   0.03498   0.01372   0.68778
   D24        2.74607   0.00000  -0.02891   0.03427   0.00525   2.75132
   D25        0.00404   0.00013  -0.00626   0.00305  -0.00297   0.00107
   D26        3.03317   0.00056   0.05072   0.02318   0.07251   3.10569
   D27        1.27981  -0.00045  -0.00590  -0.01968  -0.02555   1.25425
   D28       -0.85787  -0.00038  -0.00355  -0.01834  -0.02195  -0.87982
   D29       -2.92518   0.00023  -0.00541  -0.01244  -0.01782  -2.94299
         Item               Value     Threshold  Converged?
 Maximum Force            0.002695     0.000015     NO 
 RMS     Force            0.000829     0.000010     NO 
 Maximum Displacement     0.131319     0.000060     NO 
 RMS     Displacement     0.041742     0.000040     NO 
 Predicted change in Energy=-5.176920D-04
 GradGradGradGradGradGradGradGradGradGradGradGradGradGradGradGradGradGrad

                          Input orientation:                          
 ---------------------------------------------------------------------
 Center     Atomic      Atomic             Coordinates (Angstroms)
 Number     Number       Type             X           Y           Z
 ---------------------------------------------------------------------
      1          6           0       -2.224589   -0.291996    1.408936
      2          6           0       -1.202091    0.113463    0.465321
      3          6           0       -1.313527    0.663507   -0.776118
      4          6           0        0.012880    0.837311   -1.252432
      5          6           0        0.832983    0.368815   -0.272354
      6          6           0        2.312261    0.299424   -0.119269
      7          8           0       -2.001374   -0.754430    2.504848
      8          8           0        0.103569   -0.071985    0.774892
      9          8           0        2.835098    1.423609    0.566632
     10          1           0       -3.249895   -0.052896    1.081250
     11          1           0       -2.235878    0.912175   -1.276218
     12          1           0        0.326932    1.233683   -2.203480
     13          1           0        2.591862    1.364265    1.496035
     14          1           0        2.571862   -0.630863    0.392634
     15          1           0        2.771730    0.290484   -1.106687
 ---------------------------------------------------------------------
                    Distance matrix (angstroms):
                    1          2          3          4          5
     1  C    0.000000
     2  C    1.449244   0.000000
     3  C    2.552936   1.362401   0.000000
     4  C    3.655746   2.225036   1.420013   0.000000
     5  C    3.551359   2.179655   2.224439   1.361106   0.000000
     6  C    4.823712   3.567491   3.702748   2.619262   1.488796
     7  O    1.210245   2.356217   3.639837   4.550605   4.124088
     8  O    2.422961   1.354612   2.225925   2.223754   1.350212
     9  O    5.408624   4.245661   4.426265   3.408468   2.413494
    10  H    1.102632   2.144888   2.777152   4.109044   4.322034
    11  H    2.942822   2.177065   1.078270   2.250129   3.274277
    12  H    4.678409   3.273424   2.248015   1.077141   2.175622
    13  H    5.094015   4.125646   4.572286   3.805640   2.685475
    14  H    4.914636   3.847340   4.258829   3.377894   2.113118
    15  H    5.624130   4.277125   4.115549   2.816295   2.112105
                    6          7          8          9         10
     6  C    0.000000
     7  O    5.157910   0.000000
     8  O    2.411594   2.808783   0.000000
     9  O    1.416902   5.647300   3.121125   0.000000
    10  H    5.701136   2.019303   3.367483   6.282678   0.000000
    11  H    4.732817   4.138722   3.263224   5.419636   2.741760
    12  H    3.026269   5.616222   3.259656   3.741723   5.023787
    13  H    1.954807   5.157944   2.962171   0.962536   6.025489
    14  H    1.093102   5.038968   2.559479   2.078563   5.890763
    15  H    1.089121   6.075981   3.284935   2.021876   6.415991
                   11         12         13         14         15
    11  H    0.000000
    12  H    2.744300   0.000000
    13  H    5.585413   4.339743   0.000000
    14  H    5.317932   3.905900   2.280006   0.000000
    15  H    5.048899   2.840707   2.821262   1.771099   0.000000
 Symmetry turned off by external request.
 Stoichiometry    C6H6O3
 Framework group  C1[X(C6H6O3)]
 Deg. of freedom    39
 Full point group                 C1      NOp   1
 Rotational constants (GHZ):      3.3798098      1.0590300      0.8507401
 Standard basis: 6-311+G(2df,p) (5D, 7F)
 Integral buffers will be    131072 words long.
 Raffenetti 2 integral format.
 Two-electron integral symmetry is turned off.
   342 basis functions,   516 primitive gaussians,   387 cartesian basis functions
    33 alpha electrons       33 beta electrons
       nuclear repulsion energy       424.3161185410 Hartrees.
 NAtoms=   15 NActive=   15 NUniq=   15 SFac= 1.00D+00 NAtFMM=   50 NAOKFM=F Big=F
 ------------------------------------------------------------------------------
 Polarizable Continuum Model (PCM)
 =================================
 Model                : PCM.
 Atomic radii         : UFF (Universal Force Field).
 Polarization charges : Total charges.
 Charge compensation  : None.
 Solution method      : Matrix inversion.
 Cavity type          : Scaled VdW (van der Waals Surface) (Alpha=1.100).
 Cavity algorithm     : GePol (No added spheres)
                        Default sphere list used, NSphG=   15.
                        Lebedev-Laikov grids with approx.  5.0 points / Ang**2.
                        Smoothing algorithm: Karplus/York (Gamma=1.0000).
                        Polarization charges: spherical gaussians, with
                                              point-specific exponents (IZeta= 3).
                        Self-potential: point-specific (ISelfS= 7).
                        Self-field    : sphere-specific E.n sum rule (ISelfD= 2).
 1st derivatives      : Analytical E(r).r(x)/FMM algorithm (CHGder, D1EAlg=3).
                        Cavity 1st derivative terms included.
 Solvent              : Ethanol, Eps=  24.852000 Eps(inf)=   1.852593
 ------------------------------------------------------------------------------
 Spheres list:
 ISph  on   Nord    Re0     Alpha      Xe            Ye            Ze
    1   C      1    1.925   1.100     -2.224589     -0.291996      1.408936
    2   C      2    1.925   1.100     -1.202091      0.113463      0.465321
    3   C      3    1.925   1.100     -1.313527      0.663507     -0.776118
    4   C      4    1.925   1.100      0.012880      0.837311     -1.252432
    5   C      5    1.925   1.100      0.832983      0.368815     -0.272354
    6   C      6    1.925   1.100      2.312261      0.299424     -0.119269
    7   O      7    1.750   1.100     -2.001374     -0.754430      2.504848
    8   O      8    1.750   1.100      0.103569     -0.071985      0.774892
    9   O      9    1.750   1.100      2.835098      1.423609      0.566632
   10   H     10    1.443   1.100     -3.249895     -0.052896      1.081250
   11   H     11    1.443   1.100     -2.235878      0.912175     -1.276218
   12   H     12    1.443   1.100      0.326932      1.233683     -2.203480
   13   H     13    1.443   1.100      2.591862      1.364265      1.496035
   14   H     14    1.443   1.100      2.571862     -0.630863      0.392634
   15   H     15    1.443   1.100      2.771730      0.290484     -1.106687
 ------------------------------------------------------------------------------
 One-electron integrals computed using PRISM.
 NBasis=   342 RedAO= T  NBF=   342
 NBsUse=   342 1.00D-06 NBFU=   342
 Initial guess read from the read-write file.
 B after Tr=     0.000000    0.000000    0.000000
         Rot=    1.000000    0.000000    0.000000    0.000000 Ang=   0.00 deg.
 Harris functional with IExCor= 1009 diagonalized for initial guess.
 ExpMin= 4.38D-02 ExpMax= 8.59D+03 ExpMxC= 1.30D+03 IAcc=3 IRadAn=         5 AccDes= 0.00D+00
 HarFok:  IExCor= 1009 AccDes= 0.00D+00 IRadAn=         5 IDoV= 1
[...]
    A3        2.12279   0.00000   0.00000   0.00000   0.00000   2.12279
    A4        2.27826   0.00000   0.00000   0.00000   0.00000   2.27826
    A5        2.08416   0.00000   0.00000   0.00000   0.00000   2.08416
    A6        1.92075   0.00000   0.00000   0.00000   0.00000   1.92075
    A7        1.85349   0.00000   0.00000   0.00000   0.00000   1.85349
    A8        2.19595   0.00000   0.00000   0.00000   0.00000   2.19595
    A9        2.23374   0.00000   0.00000   0.00000   0.00000   2.23374
   A10        1.85116   0.00000   0.00000   0.00000   0.00000   1.85116
   A11        2.23262   0.00000   0.00000   0.00000   0.00000   2.23262
   A12        2.19941   0.00000   0.00000   0.00000   0.00000   2.19941
   A13        2.32449   0.00000   0.00000   0.00000   0.00000   2.32449
   A14        1.92886   0.00000   0.00000   0.00000   0.00000   1.92886
   A15        2.02983   0.00000   0.00000   0.00000   0.00000   2.02983
   A16        1.95967   0.00000   0.00000   0.00000   0.00000   1.95967
   A17        1.91287   0.00000   0.00000   0.00000   0.00000   1.91287
   A18        1.89365   0.00000   0.00000   0.00000   0.00000   1.89365
   A19        1.93450   0.00000   0.00000   0.00000   0.00000   1.93450
   A20        1.87143   0.00000   0.00000   0.00000   0.00000   1.87143
   A21        1.88958   0.00000   0.00000   0.00000   0.00000   1.88958
   A22        1.87050   0.00000   0.00000   0.00000   0.00000   1.87050
   A23        1.90018   0.00000   0.00000   0.00000   0.00000   1.90018
    D1       -3.13190   0.00000   0.00000   0.00002   0.00002  -3.13188
    D2        0.00493   0.00000   0.00000   0.00001   0.00001   0.00494
    D3        0.00970   0.00000   0.00000   0.00001   0.00001   0.00971
    D4       -3.13666   0.00000   0.00000   0.00001   0.00001  -3.13665
    D5        3.13083   0.00000   0.00000  -0.00001  -0.00001   3.13082
    D6       -0.00501   0.00000   0.00000  -0.00001  -0.00001  -0.00502
    D7       -0.00634   0.00000   0.00000   0.00000   0.00000  -0.00634
    D8        3.14100   0.00000   0.00000   0.00000   0.00000   3.14100
    D9       -3.13182   0.00000   0.00000   0.00001   0.00001  -3.13181
   D10        0.00592   0.00000   0.00000   0.00000   0.00000   0.00592
   D11        0.00431   0.00000   0.00000   0.00000   0.00000   0.00431
   D12       -3.13374   0.00000   0.00000   0.00000   0.00000  -3.13374
   D13        3.13999   0.00000   0.00000   0.00000   0.00000   3.13999
   D14        0.00194   0.00000   0.00000   0.00000   0.00000   0.00194
   D15       -3.13973   0.00000   0.00000  -0.00001  -0.00001  -3.13974
   D16       -0.00080   0.00000   0.00000   0.00000   0.00000  -0.00080
   D17       -0.00159   0.00000   0.00000  -0.00001  -0.00001  -0.00161
   D18        3.13734   0.00000   0.00000   0.00000   0.00000   3.13733
   D19        2.05422   0.00000   0.00000   0.00007   0.00007   2.05429
   D20       -2.07102   0.00000   0.00000   0.00007   0.00007  -2.07095
   D21       -0.01101   0.00000   0.00000   0.00007   0.00007  -0.01094
   D22       -1.08459   0.00000   0.00000   0.00006   0.00006  -1.08453
   D23        1.07335   0.00000   0.00000   0.00006   0.00006   1.07341
   D24        3.13337   0.00000   0.00000   0.00006   0.00006   3.13342
   D25       -0.00306   0.00000   0.00000   0.00000   0.00000  -0.00306
   D26        3.13637   0.00000   0.00000   0.00001   0.00001   3.13638
   D27        1.19535   0.00000   0.00000   0.00000   0.00000   1.19535
   D28       -0.95046   0.00000   0.00000   0.00000   0.00000  -0.95046
   D29       -3.00953   0.00000   0.00000   0.00000   0.00000  -3.00952
         Item               Value     Threshold  Converged?
 Maximum Force            0.000000     0.000015     YES
 RMS     Force            0.000000     0.000010     YES
 Maximum Displacement     0.000137     0.000060     NO 
 RMS     Displacement     0.000034     0.000040     YES
 Predicted change in Energy=-1.236320D-11
 GradGradGradGradGradGradGradGradGradGradGradGradGradGradGradGradGradGrad

 1\1\GINC-RM1408\Freq\RM062X\6-311+G(2df,p)\C6H6O3\HBMAYES\17-May-2013\
 0\\#N Geom=AllCheck Guess=TCheck SCRF=Check GenChk RM062X/6-311+G(2df,
 p) Freq\\look for low E\\0,1\C,-2.193851653,-0.1657850953,1.4617464461
 \C,-1.1884288718,0.1535079703,0.4691938911\C,-1.3191780938,0.568713755
 3,-0.8219573477\C,0.0008992044,0.743671366,-1.3176332693\C,0.834262262
 4,0.4165288992,-0.2929693612\C,2.3167128416,0.3877427719,-0.1545522758
 \O,-1.9540768331,-0.5198330954,2.5943144956\O,0.1254569431,0.054631656
 4,0.79548006\O,2.7811777828,1.2894758815,0.8328762941\H,-3.2283887999,
 -0.0586614025,1.0963527553\H,-2.2500254165,0.7310641465,-1.341407061\H
 ,0.3016290208,1.0707794147,-2.2989033091\H,2.5023291336,0.9739546177,1
 .6985917236\H,2.6452655153,-0.6331450548,0.064915934\H,2.758037964,0.6
 919211686,-1.1020589758\\Version=EM64L-G09RevB.01\HF=-457.8679111\RMSD
 =1.329e-09\RMSF=4.172e-06\ZeroPoint=0.1137855\Thermal=0.1220102\Dipole
 =-0.11492,0.0041964,-1.9132952\DipoleDeriv=1.3935367,0.2039866,-0.5836
 088,0.2948645,0.49069,-0.6808337,-0.9081772,-0.7002886,2.406204,-0.391
 6528,-0.326408,0.9418335,-0.3367618,-0.0761673,0.2146934,1.0189275,0.2
 186071,-0.6395019,0.4017916,0.0730355,-0.2193012,0.1608032,-0.0938072,
 -0.1444738,-0.4678804,-0.145013,0.2957221,-0.6748846,-0.0589183,0.1485
 007,0.0620346,-0.2110837,-0.0748952,-0.2780165,-0.0869942,0.0148896,0.
 2803525,-0.0559064,0.073795,-0.12667,0.0366521,-0.153169,0.4755135,-0.
 1335314,0.3398599,0.7943016,0.1073182,0.1609634,0.2645245,0.6004507,0.
 2360118,0.2669589,0.3039294,0.629333,-0.6244231,0.0352289,-0.1181363,-
 0.1840359,-0.599516,0.472928,0.5780205,0.490967,-1.949875,-0.5437039,0
 .1028123,-0.3066248,0.1210804,-0.1916809,0.2356953,-0.2330942,0.231938
 6,-0.8572922,-0.9246981,-0.0123401,-0.1511215,-0.1580708,-0.6799352,-0
 .2590568,-0.4021645,-0.330822,-0.8036659,-0.1791718,0.0145056,-0.05999
 92,0.0300668,0.0932697,0.0250621,-0.1023997,0.0236626,0.0229159,0.0279
 825,0.0089428,-0.0359292,0.0061069,0.1973403,0.0111056,-0.016677,0.015
 37,0.1550371,0.0982616,-0.023389,0.0700134,-0.0169805,0.1938502,0.0513
 477,0.0477488,0.0482786,0.0662318,0.3957838,-0.0717577,0.0671671,-0.07
 26584,0.2895677,0.0386101,0.0950834,0.030795,0.3388966,-0.0858611,0.01
 88511,-0.0145646,0.0062364,-0.1192272,-0.0248633,-0.114477,0.0298478,0
 .0463086,0.0323853,-0.0159616,0.0270125,-0.0505401,0.0695967,0.0518378
 ,0.040634,0.0032529,-0.0650634\Polar=125.0525541,7.375768,70.8208073,-
 14.9460438,-16.7775935,122.4747286\PG=C01 [X(C6H6O3)]\NImag=0\\0.63469
 632,-0.03138515,0.25515113,0.11075848,-0.21062984,0.86206542,-0.194771
 27,-0.01985704,0.06010898,0.63618518,-0.02223008,-0.07439938,0.0194040
 8,0.02245352,0.19763447,0.06694818,0.01942737,-0.12844823,-0.06213142,
 -0.19362938,0.73881388,0.00553011,-0.00997840,0.03117149,-0.09004450,0
 .01506749,-0.04709218,0.74578180,-0.00284782,-0.00433913,0.01083346,0.
 01462474,-0.09843210,0.09638467,-0.04249538,0.19050466,0.00854847,0.01
 065544,-0.03390378,-0.04495681,0.09632480,-0.36929294,0.14596669,-0.17
 018066,0.66637639,0.01355338,0.00578232,-0.01807823,-0.01479980,-0.025
 95495,0.07908004,-0.25788138,-0.01374687,0.03711343,0.57953455,0.00057
 322,0.00556670,0.00484721,-0.00391920,0.00806977,0.01284866,-0.0270425
 1,-0.07166763,0.02409548,0.01368890,0.19940032,-0.00060725,0.00539500,
 -0.00956973,0.00859358,0.01228637,-0.02515506,0.07744128,0.02384058,-0
 .13442801,-0.02517125,-0.22712491,0.81555965,0.00065009,0.00281596,-0.
 01095450,-0.10071551,-0.01091327,0.02970394,-0.05596474,0.00040966,0.0
 0100499,-0.22226250,0.04741259,-0.15463832,0.78699277,0.00685992,0.003
 48518,-0.00404377,-0.02184556,0.00846177,0.01482901,0.01943791,0.01257
 838,-0.01020593,0.03709632,-0.09122784,0.06593696,-0.02774816,0.228084
 51,-0.02095476,-0.00403024,0.01502773,0.06527764,0.01577911,-0.0322148
 1,-0.06179305,-0.01027244,0.03910916,-0.12265031,0.06649566,-0.2771875
 4,0.09666821,-0.12628492,0.59193984,-0.00402173,-0.00154713,0.00557209
 ,0.01024423,0.00037299,-0.00116703,0.00024917,-0.00171230,-0.00124044,
 -0.00605653,0.00042488,0.00029659,-0.23258463,0.01665353,-0.00631139,0
 .51139394,-0.00179545,0.00073781,0.00241191,0.00360719,0.00324605,0.00
 172066,0.00085384,0.00592747,0.00378378,0.00886435,0.00738023,-0.00036
 649,0.01572922,-0.07369366,0.01204700,-0.01167181,0.54709031,0.0009956
 8,-0.00016849,0.00244795,0.00063133,0.00293365,-0.00770372,-0.00290808
 ,0.00217461,-0.00194399,-0.01644524,-0.00009700,0.00689232,-0.02172078
 ,0.01065741,-0.08433849,-0.05484680,-0.06732036,0.59225220,-0.13599284
 ,0.03906007,-0.12612813,0.02236438,-0.00742462,0.02378798,-0.00510363,
 -0.00091072,0.00274520,-0.00041929,-0.00087046,0.00263406,0.00179196,-
 0.00033909,0.00109594,0.00034623,0.00008900,-0.00007675,0.10937584,0.0
 4509594,-0.12092443,0.17970085,-0.00763063,0.00982298,0.03361129,0.000
 79197,0.00522568,-0.00404910,-0.00400489,-0.00194952,-0.00138754,-0.00
 105011,-0.00143317,0.00406236,0.00117738,0.00061341,0.00023243,-0.0431
 2049,0.09490868,-0.14530709,0.17945172,-0.63998649,0.02439582,0.033673
 68,-0.08582484,-0.00263460,-0.00431151,0.01690139,0.01288636,-0.001002
 49,0.00205019,0.00344076,0.00412344,-0.01301311,-0.00381488,-0.0015191
 0,-0.00074872,0.13911111,-0.22278655,0.73792070,-0.04895632,-0.0007596
 0,0.00261426,-0.23681342,0.02767068,-0.08615747,-0.05868708,0.01353654
 ,-0.04467460,0.00231015,-0.00704438,0.02398550,-0.13867262,-0.02606831
 ,0.08055133,-0.02836240,-0.01616681,0.04368159,0.00573701,0.00330601,-
 0.01038742,0.50155017,-0.01115482,-0.00286985,-0.00362833,0.01347443,-
 0.07306407,0.01089753,0.00369549,0.00617361,0.02108218,0.00908673,0.00
 507761,0.03196488,-0.01569857,-0.08764699,0.04765267,-0.00363740,-0.00
 328481,-0.00194729,0.00064799,-0.00090062,-0.00255625,0.00331364,0.135
 79115,0.03298308,-0.00430902,0.00889949,-0.04009412,0.01044971,-0.1034
 1972,-0.01250161,0.02228164,-0.05413174,-0.02946204,0.03127907,-0.0816
 9634,0.05563078,0.04778421,-0.21804317,0.00699654,-0.00087510,-0.00007
 274,-0.00159931,-0.00212758,0.00505721,-0.00939973,-0.11361306,0.44939
 986,0.00220379,0.00152367,-0.00367277,-0.00458678,0.00034597,0.0011253
 0,-0.00115851,0.00198215,0.00003896,-0.00208431,-0.00076190,0.00165475
 ,-0.01882921,-0.02981811,-0.03296275,-0.07849264,-0.04703529,-0.017590
 77,-0.00013688,-0.00080460,0.00253634,0.00521278,0.00049723,-0.0022600
 8,0.14375606,0.00102121,0.00067352,-0.00177902,-0.00255848,-0.00040108
 ,0.00059481,-0.00055885,-0.00007741,-0.00036026,-0.00099648,-0.0010033
 4,0.00089714,-0.01288093,-0.00215048,-0.01065005,-0.04358615,-0.149945
 43,-0.04863493,-0.00006893,-0.00037446,0.00121862,0.00214632,0.0014930
 4,-0.00028715,0.13809368,0.26463340,0.00155501,0.00089175,-0.00280489,
 -0.00397775,-0.00011523,0.00210411,-0.00011581,0.00128519,-0.00034769,
 -0.00217218,-0.00084394,0.00144464,-0.01415900,-0.01084195,-0.01378323
 ,-0.03530528,-0.09043356,-0.16563078,-0.00009835,-0.00053861,0.0018956
 1,0.00138613,0.00072979,0.00043354,-0.07575965,-0.03482985,0.63412670,
 -0.27522636,0.01392375,-0.04935908,-0.01922721,0.00249946,-0.00877060,
 0.00034606,0.00009019,0.00008497,-0.00059672,-0.00013526,0.00034175,-0
 .00078826,0.00026237,-0.00068284,0.00029741,-0.00002225,0.00059651,0.0
 0230965,0.00682806,-0.02214788,-0.00198676,-0.00134311,0.00399182,-0.0
 0019606,-0.00010886,-0.00019340,0.29530085,0.01556730,-0.06111807,0.00
 425130,-0.00550160,0.01443836,0.00060956,0.00017845,-0.00161568,-0.000
 36305,0.00026912,0.00018388,0.00014791,-0.00008527,0.00026002,-0.00065
 323,-0.00005317,-0.00084625,-0.00006428,0.01301662,0.01489662,0.013413
 63,-0.00161180,0.00362388,0.00267077,-0.00016230,-0.00002176,-0.000078
 85,-0.02184755,0.03026506,-0.05443125,0.00425123,-0.07472144,0.0165400
 1,0.00077476,0.01248039,-0.00030601,-0.00031919,-0.00064825,-0.0010107
 7,0.00011226,-0.00020896,0.00073348,-0.00063514,0.00192478,0.00016678,
 -0.00007608,-0.00052829,-0.04180344,0.01323802,-0.02414857,0.00484636,
 0.00263283,-0.00355304,-0.00013205,-0.00002766,-0.00002797,0.07544555,
 -0.02008482,0.08989929,-0.00002377,0.00003694,-0.00000569,0.00378343,-
 0.00052244,0.00166239,-0.28429792,0.03994235,-0.12829296,-0.00948311,0
 .00452137,-0.01394038,-0.00429885,-0.00070591,0.00174741,0.00044777,0.
 00055384,-0.00061369,0.00006975,0.00010087,-0.00034011,0.00211081,-0.0
 0072008,0.00207830,-0.00039656,-0.00022392,-0.00034118,-0.00004831,0.0
 0009912,-0.00003967,0.29151240,0.00002250,-0.00322897,-0.00108861,0.00
 756019,0.00049731,0.00085104,0.03938078,-0.04380278,0.02947449,-0.0035
 8099,0.00290057,-0.00338851,-0.00134321,0.00324408,0.00200824,-0.00014
 777,0.00041425,-0.00008234,-0.00007812,0.00075551,0.00006297,0.0009214
 9,0.00670909,0.00374883,0.00019758,0.00008251,-0.00005290,-0.00012734,
 -0.00001581,0.00016989,-0.04298537,0.03428264,-0.00022988,-0.00121729,
 0.00018771,-0.02302545,0.00077538,-0.00203192,-0.12645936,0.02946894,-
 0.12801533,0.01064284,-0.00326047,0.01186153,0.00432819,0.00208225,-0.
 00225768,-0.00023563,-0.00031623,0.00077610,0.00024208,0.00013082,0.00
 037323,-0.00307550,0.00370108,-0.00365697,0.00031706,0.00017278,0.0002
 3191,0.00065452,0.00016011,-0.00044547,0.13781152,-0.03112614,0.123274
 01,0.00171085,-0.00006195,0.00019405,-0.00740490,-0.00044220,0.0010817
 7,0.00144694,-0.00786959,0.02391999,-0.08028739,-0.02636270,0.07839095
 ,0.01068674,0.00524106,-0.01538417,0.00066304,-0.00011601,0.00028517,-
 0.00043301,-0.00032620,0.00104849,-0.00006718,0.00178116,-0.00589276,0
 .00006882,0.00000782,0.00019471,-0.00002833,0.00002780,-0.00008603,0.0
 0082698,0.00037203,-0.00107878,0.07317028,0.00009531,0.00122699,0.0002
 3360,0.00006283,0.00404823,0.00153119,0.00064527,-0.00037405,-0.000142
 11,-0.02599782,-0.06234101,0.09294404,-0.00305300,-0.00159904,0.002938
 31,0.00051678,-0.00314769,-0.00078125,-0.00004177,-0.00056553,-0.00005
 972,0.00023373,0.00740365,0.00292020,-0.00058805,0.00022464,-0.0004842
 6,-0.00001996,-0.00007342,-0.00002190,-0.00005906,-0.00181591,-0.00055
 598,0.02782099,0.05687757,-0.00016213,0.00030095,0.00048186,-0.0006866
 9,0.00141488,0.00024764,-0.00141408,-0.00038805,0.00046955,0.07590922,
 0.09302600,-0.31018098,0.00970451,0.00316551,-0.00995257,0.00057923,-0
 .00111682,-0.00013069,0.00010751,-0.00011877,-0.00026029,-0.00098572,0
 .00315185,-0.00130335,-0.00024023,-0.00000119,-0.00003614,0.00005229,-
 0.00002284,-0.00001869,0.00026451,-0.00054785,-0.00032078,-0.08291348,
 -0.09889209,0.32066724,-0.00016287,-0.00016113,0.00045518,-0.00105604,
 0.00031371,-0.00013193,0.00027886,-0.00012726,0.00038222,-0.00002381,0
 .00001493,0.00042398,0.00086716,0.00055852,-0.00410609,0.00160853,0.00
 250472,-0.01677227,0.00007638,0.00012241,-0.00028834,0.00079825,-0.000
 26569,0.00097839,-0.05770443,-0.06658271,0.14588945,0.00007637,0.00000
 304,-0.00003478,-0.00000030,-0.00006935,0.00004040,0.00002968,-0.00006
 590,0.00004793,0.05540770,0.00003858,-0.00000043,-0.00006674,-0.000479
 99,-0.00008225,0.00020099,0.00013557,0.00007126,0.00008555,-0.00012531
 ,-0.00003098,0.00007718,-0.00008158,0.00043950,-0.00056265,0.00753672,
 0.00554330,-0.03285539,0.00002441,-0.00002444,0.00003183,0.00024425,-0
 .00005175,0.00016342,-0.07155443,-0.09245810,0.17308401,0.00000661,0.0
 0000824,-0.00000481,-0.00001626,-0.00000579,0.00003043,0.00003521,-0.0
 0004670,0.00001562,0.06532478,0.08855832,-0.00045924,-0.00036190,0.000
 97298,0.00045406,0.00026144,-0.00035525,0.00020561,-0.00013259,0.00026
 248,0.00047403,-0.00005607,0.00013471,-0.00053343,0.00116189,-0.000832
 45,0.00817345,0.00936480,-0.02883680,0.00002064,0.00021173,-0.00065362
 ,-0.00035420,-0.00016545,0.00061229,0.11946712,0.12842923,-0.42543637,
 0.00006684,0.00001498,-0.00000124,0.00005897,-0.00003533,-0.00001621,0
 .00000057,-0.00001222,0.00002461,-0.12622940,-0.13549749,0.45273498,0.
 00120623,0.00040485,-0.00196028,-0.00364502,-0.00066701,0.00021962,-0.
 00051619,-0.00099702,-0.00063953,-0.00259100,-0.00076153,0.00122970,-0
 .01563913,0.03196022,-0.01107670,-0.07580320,0.07682628,-0.01492850,-0
 .00002974,-0.00042122,0.00128002,0.00456015,-0.00012005,-0.00066583,0.
 00562634,-0.01631516,-0.00135392,-0.00006049,0.00014431,-0.00002688,-0
 .00027818,-0.00017063,0.00016910,0.00005972,0.00034758,0.00012815,0.00
 006212,0.00073503,0.00097593,0.08136842,0.00015308,0.00010189,-0.00040
 793,-0.00055042,-0.00003012,0.00006065,0.00012158,-0.00028365,0.000059
 31,0.00002561,-0.00004170,-0.00114611,0.00267771,0.00097117,0.00343501
 ,0.07284019,-0.26320052,0.05610571,0.00002549,-0.00005812,0.00024846,0
 .00058788,0.00042818,-0.00030737,-0.00018666,-0.02708153,-0.00971581,-
 0.00000088,0.00001129,-0.00001984,0.00001095,0.00001462,-0.00005607,-0
 .00006739,0.00014405,0.00001935,-0.00072127,0.00076386,0.00077303,-0.0
 7800406,0.29501939,0.00056662,0.00044256,-0.00078755,-0.00134277,-0.00
 019598,0.00049745,0.00028925,-0.00064499,-0.00016889,-0.00057306,0.000
 05147,0.00019416,-0.00005859,0.00242702,0.00066733,-0.01579844,0.06253
 896,-0.06545058,-0.00005082,-0.00021387,0.00055865,0.00024872,-0.00017
 432,0.00013273,0.00202659,-0.03552521,-0.00177700,-0.00005369,-0.00001
 431,-0.00002134,-0.00003553,0.00001412,0.00002702,0.00006663,0.0002609
 0,0.00024005,0.00060243,-0.00072722,0.00219042,0.02377571,-0.05210215,
 0.06789105,-0.00039561,0.00020284,-0.00071584,0.00048721,-0.00056923,0
 .00184143,0.00002102,0.00012135,-0.00000059,0.00108776,0.00026206,-0.0
 0063494,-0.01123327,-0.01154472,0.03058155,-0.09992919,-0.03222083,0.0
 9971261,0.00004419,-0.00006450,0.00022142,-0.00873353,0.00044305,-0.00
 078345,0.00671761,0.00261145,-0.01554878,-0.00017185,-0.00004408,0.000
 13871,0.00007586,0.00004820,-0.00010111,-0.00044225,0.00010306,-0.0003
 9103,-0.00025760,-0.00182358,-0.00232094,0.00567995,0.00308821,-0.0096
 6305,0.10704971,-0.00001373,-0.00006299,-0.00003817,0.00056002,0.00019
 005,0.00006195,-0.00023322,0.00011138,-0.00025992,-0.00040604,-0.00031
 705,-0.00007649,0.00380896,0.00022657,-0.00196482,-0.03716673,-0.07683
 446,0.07984751,-0.00000937,0.00000740,0.00001128,-0.00030964,0.0011178
 7,0.00022141,0.00827107,0.00640649,-0.02805577,-0.00000524,0.00000364,
 0.00001045,-0.00003240,-0.00003132,0.00001039,-0.00004001,0.00003822,-
 0.00000657,-0.00084880,-0.00268403,-0.00395605,-0.01296159,-0.00675880
 ,0.02386302,0.03938672,0.07858703,-0.00020391,-0.00009924,0.00013898,0
 .00021359,-0.00013727,0.00030302,0.00015045,-0.00001968,-0.00023836,-0
 .00054283,-0.00037093,0.00028942,0.00084976,-0.00015599,0.00295422,0.0
 9693520,0.07015663,-0.24698376,0.00001230,0.00003451,-0.00012134,-0.00
 227925,0.00027189,0.00134195,0.00545220,0.00078274,-0.03039244,-0.0000
 2676,0.00001313,0.00001881,-0.00001388,-0.00000789,0.00001286,0.000172
 88,0.00012129,0.00007256,-0.00125717,-0.00397474,-0.00080053,0.0028734
 2,0.00305376,-0.00419348,-0.10233600,-0.06966821,0.27759810\\0.0000039
 6,-0.00000018,0.00000690,0.00000127,-0.00000100,0.00000390,-0.00000256
 ,-0.00000350,0.00000323,-0.00000394,-0.00000261,-0.00000034,-0.0000011
 0,-0.00000008,-0.00000130,-0.00000080,0.00000198,-0.00000562,0.0000071
 9,0.00000197,0.00000665,0.00000214,0.00000133,0.00000032,0.00000077,0.
 00000448,-0.00000815,0.00000295,-0.00000212,0.00000913,-0.00000409,-0.
 00000539,0.00000532,-0.00000674,-0.00000429,-0.00000171,0.00000322,0.0
 0000567,-0.00000697,0.00000108,0.00000289,-0.00000434,-0.00000334,0.00
 000084,-0.00000702\\\@


            THE IRISH PIG
 'TWAS AN EVENING IN NOVEMBER,
 AS I VERY WELL REMEMBER
 I WAS STROLLING DOWN THE STREET IN DRUNKEN PRIDE,
 BUT MY KNEES WERE ALL A'FLUTTER
 SO I LANDED IN THE GUTTER,
 AND A PIG CAME UP AND LAY DOWN BY MY SIDE.

 YES, I LAY THERE IN THE GUTTER
 THINKING THOUGHTS I COULD NOT UTTER
 WHEN A COLLEEN PASSING BY DID SOFTLY SAY,
 'YE CAN TELL A MAN THAT BOOZES
 BY THE COMPANY THAT HE CHOOSES.' -
 AT THAT, THE PIG GOT UP AND WALKED AWAY!
     -- THE ECONOMIST, AUGUST 23, 1986
 Job cpu time:  0 days  4 hours 12 minutes 16.8 seconds.
 File lengths (MBytes):  RWF=    193 Int=      0 D2E=      0 Chk=     12 Scr=      1
 Normal termination of Gaussian 09 at Fri May 17 20:41:45 2013.
