 Entering Gaussian System, Link 0=g09
 Input=/store2/hmayes/glucose/glucEO3Dbb3lm.dat
 Output=/store2/hmayes/glucose/glucEO3Dbb3lm.log
 Initial command:
 /usr/local/g09.C01/g09/l1.exe /scratch/hmayes/239652.skynet/Gau-25892.inp -scrdir=/scratch/hmayes/239652.skynet/
 Entering Link 1 = /usr/local/g09.C01/g09/l1.exe PID=     25893.
  
 Copyright (c) 1988,1990,1992,1993,1995,1998,2003,2009,2011,
            Gaussian, Inc.  All Rights Reserved.
  
 This is part of the Gaussian(R) 09 program.  It is based on
 the Gaussian(R) 03 system (copyright 2003, Gaussian, Inc.),
 the Gaussian(R) 98 system (copyright 1998, Gaussian, Inc.),
 the Gaussian(R) 94 system (copyright 1995, Gaussian, Inc.),
 the Gaussian 92(TM) system (copyright 1992, Gaussian, Inc.),
 the Gaussian 90(TM) system (copyright 1990, Gaussian, Inc.),
 the Gaussian 88(TM) system (copyright 1988, Gaussian, Inc.),
 the Gaussian 86(TM) system (copyright 1986, Carnegie Mellon
 University), and the Gaussian 82(TM) system (copyright 1983,
 Carnegie Mellon University). Gaussian is a federally registered
 trademark of Gaussian, Inc.
  
 This software contains proprietary and confidential information,
 including trade secrets, belonging to Gaussian, Inc.
  
 This software is provided under written license and may be
 used, copied, transmitted, or stored only in accord with that
 written license.
  
 The following legend is applicable only to US Government
 contracts under FAR:
  
                    RESTRICTED RIGHTS LEGEND
  
 Use, reproduction and disclosure by the US Government is
 subject to restrictions as set forth in subparagraphs (a)
 and (c) of the Commercial Computer Software - Restricted
 Rights clause in FAR 52.227-19.
  
 Gaussian, Inc.
 340 Quinnipiac St., Bldg. 40, Wallingford CT 06492
  
  
 ---------------------------------------------------------------
 Warning -- This program may not be used in any manner that
 competes with the business of Gaussian, Inc. or will provide
 assistance to any competitor of Gaussian, Inc.  The licensee
 of this program is prohibited from giving any competitor of
 Gaussian, Inc. access to this program.  By using this program,
 the user acknowledges that Gaussian, Inc. is engaged in the
 business of creating and licensing software in the field of
 computational chemistry and represents and warrants to the
 licensee that it is not a competitor of Gaussian, Inc. and that
 it will not use this program in any manner prohibited above.
 ---------------------------------------------------------------
  

 Cite this work as:
 Gaussian 09, Revision C.01,
 M. J. Frisch, G. W. Trucks, H. B. Schlegel, G. E. Scuseria, 
 M. A. Robb, J. R. Cheeseman, G. Scalmani, V. Barone, B. Mennucci, 
 G. A. Petersson, H. Nakatsuji, M. Caricato, X. Li, H. P. Hratchian, 
 A. F. Izmaylov, J. Bloino, G. Zheng, J. L. Sonnenberg, M. Hada, 
 M. Ehara, K. Toyota, R. Fukuda, J. Hasegawa, M. Ishida, T. Nakajima, 
 Y. Honda, O. Kitao, H. Nakai, T. Vreven, J. A. Montgomery, Jr., 
 J. E. Peralta, F. Ogliaro, M. Bearpark, J. J. Heyd, E. Brothers, 
 K. N. Kudin, V. N. Staroverov, T. Keith, R. Kobayashi, J. Normand, 
 K. Raghavachari, A. Rendell, J. C. Burant, S. S. Iyengar, J. Tomasi, 
 M. Cossi, N. Rega, J. M. Millam, M. Klene, J. E. Knox, J. B. Cross, 
 V. Bakken, C. Adamo, J. Jaramillo, R. Gomperts, R. E. Stratmann, 
 O. Yazyev, A. J. Austin, R. Cammi, C. Pomelli, J. W. Ochterski, 
 R. L. Martin, K. Morokuma, V. G. Zakrzewski, G. A. Voth, 
 P. Salvador, J. J. Dannenberg, S. Dapprich, A. D. Daniels, 
 O. Farkas, J. B. Foresman, J. V. Ortiz, J. Cioslowski, 
 and D. J. Fox, Gaussian, Inc., Wallingford CT, 2010.
 
 ******************************************
 Gaussian 09:  EM64L-G09RevC.01 23-Sep-2011
                14-May-2013 
 ******************************************
 %chk=/store2/hmayes/glucose/glucEO3Dbb3lm.chk
 %mem=10GB
 %nproc=8
 Will use up to    8 processors via shared memory.
 ----------------------------------------------------------------------
 # opt(ReadFC,Tight) freq=noraman m062x/6-311+G(2df,p) Int=(Grid=Ultraf
 ine) nosymm scrf=(solvent=ethanol) scf=(xqc,maxcycle=1000) guess=read 
 geom=allcheck
 ----------------------------------------------------------------------
 1/7=10,10=3,14=-1,18=20,19=15,26=3,29=7,38=1/1,3;
 2/9=110,12=2,15=1,40=1/2;
 3/5=4,6=6,7=114,11=2,14=-4,16=1,25=1,30=1,70=2201,71=1,72=4,74=-55,75=-5,116=-2/1,2,3;
 4/5=1/1;
 5/5=2,7=1000,8=3,13=1,38=6,53=4/2,8;
 6/7=2,8=2,9=2,10=2,28=1/1;
 7/30=1/1,2,3,16;
 1/7=10,14=-1,18=20,19=15/3(2);
 2/9=110,15=1/2;
 99//99;
 2/9=110,15=1/2;
 3/5=4,6=6,7=114,11=2,14=-2,16=1,25=1,30=1,70=2205,71=1,72=4,74=-55,75=-5/1,2,3;
 4/5=5,16=3/1;
 5/5=2,7=1000,8=3,13=1,38=5,53=4/2,8;
 7/30=1/1,2,3,16;
 1/7=10,14=-1,18=20,19=15/3(-5);
 2/9=110,15=1/2;
 6/7=2,8=2,9=2,10=2,19=2,28=1/1;
 99/9=1/99;
 Structure from the checkpoint file:  /store2/hmayes/glucose/glucEO3Dbb3lm.chk
 ----------------
 look for lower E
 ----------------
 Charge =  0 Multiplicity = 1
 Redundant internal coordinates found in file.
 C,0,-0.2650438586,0.8837555902,-0.0235396413
 C,0,-0.8809116812,1.4499358364,-1.2844577837
 C,0,-0.1352755858,1.9925213351,-2.2435804673
 C,0,1.3606118778,2.0542247202,-2.1553289212
 C,0,1.8800880192,1.2324013571,-0.9653860345
 C,0,3.2771635883,1.632852423,-0.5318089978
 O,0,-1.081029546,1.254699239,1.0505299402
 O,0,-2.2311676983,1.3294504703,-1.3853488357
 O,0,1.9860373997,1.6156919937,-3.3691250919
 O,0,1.0311521368,1.4065576224,0.1750875487
 O,0,3.790526241,0.7824230408,0.4863089821
 H,0,-0.2045722131,-0.212948464,-0.0923750624
 H,0,-0.6021829608,2.4091683865,-3.12927132
 H,0,1.6876736235,3.0943587358,-2.0526147633
 H,0,1.8832676498,0.1703618,-1.2505752121
 H,0,-0.9361634704,0.6542759573,1.7914230137
 H,0,-2.5906071599,1.1784100947,-0.4983096728
 H,0,1.609568703,0.7614353984,-3.6170683852
 H,0,3.1755239982,0.8089566963,1.2294985488
 H,0,3.9546602997,1.5531687432,-1.3814972268
 H,0,3.2642416371,2.6767170235,-0.1955956175
 Recover connectivity data from disk.

 GradGradGradGradGradGradGradGradGradGradGradGradGradGradGradGradGradGrad
 Berny optimization.
 Initialization pass.
 Force constant matrix read from checkpoint file:
 /store2/hmayes/glucose/glucEO3Dbb3lm.chk
                           ----------------------------
                           !    Initial Parameters    !
                           ! (Angstroms and Degrees)  !
 --------------------------                            --------------------------
 ! Name  Definition              Value          Derivative Info.                !
 --------------------------------------------------------------------------------
 ! R1    R(1,2)                  1.5132         D2E/DX2 =    0.2525             !
 ! R2    R(1,7)                  1.3989         D2E/DX2 =    0.3504             !
 ! R3    R(1,10)                 1.4117         D2E/DX2 =    0.2699             !
 ! R4    R(1,12)                 1.1005         D2E/DX2 =    0.3115             !
 ! R5    R(2,3)                  1.3305         D2E/DX2 =    0.5248             !
 ! R6    R(2,8)                  1.3594         D2E/DX2 =    0.4017             !
 ! R7    R(3,4)                  1.4998         D2E/DX2 =    0.2577             !
 ! R8    R(3,13)                 1.0845         D2E/DX2 =    0.3534             !
 ! R9    R(4,5)                  1.5366         D2E/DX2 =    0.227              !
 ! R10   R(4,9)                  1.4341         D2E/DX2 =    0.3079             !
 ! R11   R(4,14)                 1.0952         D2E/DX2 =    0.3237             !
 ! R12   R(5,6)                  1.5166         D2E/DX2 =    0.2775             !
 ! R13   R(5,10)                 1.4324         D2E/DX2 =    0.2551             !
 ! R14   R(5,15)                 1.0997         D2E/DX2 =    0.3144             !
 ! R15   R(6,11)                 1.4224         D2E/DX2 =    0.3329             !
 ! R16   R(6,20)                 1.0896         D2E/DX2 =    0.3407             !
 ! R17   R(6,21)                 1.0967         D2E/DX2 =    0.3211             !
 ! R18   R(7,16)                 0.9646         D2E/DX2 =    0.5225             !
 ! R19   R(8,17)                 0.9689         D2E/DX2 =    0.5022             !
 ! R20   R(9,18)                 0.9659         D2E/DX2 =    0.5142             !
 ! R21   R(11,19)                0.965          D2E/DX2 =    0.5182             !
 ! A1    A(2,1,7)              107.6475         D2E/DX2 =    0.1013             !
 ! A2    A(2,1,10)             110.6327         D2E/DX2 =    0.0619             !
 ! A3    A(2,1,12)             110.0662         D2E/DX2 =    0.0385             !
 ! A4    A(7,1,10)             109.2286         D2E/DX2 =    0.0839             !
 ! A5    A(7,1,12)             110.1397         D2E/DX2 =    0.0445             !
 ! A6    A(10,1,12)            109.1109         D2E/DX2 =    0.0337             !
 ! A7    A(1,2,3)              121.6802         D2E/DX2 =    0.0768             !
 ! A8    A(1,2,8)              115.655          D2E/DX2 =    0.1376             !
 ! A9    A(3,2,8)              122.6356         D2E/DX2 =    0.1322             !
 ! A10   A(2,3,4)              122.2302         D2E/DX2 =    0.0697             !
 ! A11   A(2,3,13)             120.2738         D2E/DX2 =    0.0725             !
 ! A12   A(4,3,13)             117.4959         D2E/DX2 =    0.0733             !
 ! A13   A(3,4,5)              111.1466         D2E/DX2 =    0.0541             !
 ! A14   A(3,4,9)              111.8753         D2E/DX2 =    0.0571             !
 ! A15   A(3,4,14)             110.027          D2E/DX2 =    0.0258             !
 ! A16   A(5,4,9)              110.1477         D2E/DX2 =    0.0636             !
 ! A17   A(5,4,14)             109.5336         D2E/DX2 =    0.0303             !
 ! A18   A(9,4,14)             103.8603         D2E/DX2 =    0.026              !
 ! A19   A(4,5,6)              113.053          D2E/DX2 =    0.0739             !
 ! A20   A(4,5,10)             110.5599         D2E/DX2 =    0.0435             !
 ! A21   A(4,5,15)             108.4617         D2E/DX2 =    0.028              !
 ! A22   A(6,5,10)             106.6324         D2E/DX2 =    0.0604             !
 ! A23   A(6,5,15)             109.0554         D2E/DX2 =    0.0294             !
 ! A24   A(10,5,15)            109.0037         D2E/DX2 =    0.0197             !
 ! A25   A(5,6,11)             112.285          D2E/DX2 =    0.1573             !
 ! A26   A(5,6,20)             109.2998         D2E/DX2 =    0.0689             !
 ! A27   A(5,6,21)             109.1531         D2E/DX2 =    0.0729             !
 ! A28   A(11,6,20)            106.8591         D2E/DX2 =    0.0601             !
 ! A29   A(11,6,21)            110.7243         D2E/DX2 =    0.0644             !
 ! A30   A(20,6,21)            108.4197         D2E/DX2 =    0.0269             !
 ! A31   A(1,7,16)             109.6983         D2E/DX2 =    0.178              !
 ! A32   A(2,8,17)             108.3213         D2E/DX2 =    0.1914             !
 ! A33   A(4,9,18)             108.5252         D2E/DX2 =    0.1785             !
 ! A34   A(1,10,5)             112.776          D2E/DX2 =    0.0665             !
 ! A35   A(6,11,19)            107.7451         D2E/DX2 =    0.1811             !
 ! D1    D(7,1,2,3)            139.1037         D2E/DX2 =    0.0258             !
 ! D2    D(7,1,2,8)            -42.8127         D2E/DX2 =    0.0249             !
 ! D3    D(10,1,2,3)            19.824          D2E/DX2 =    0.0179             !
 ! D4    D(10,1,2,8)          -162.0923         D2E/DX2 =    0.0166             !
 ! D5    D(12,1,2,3)          -100.8386         D2E/DX2 =    0.0164             !
 ! D6    D(12,1,2,8)            77.245          D2E/DX2 =    0.017              !
 ! D7    D(2,1,7,16)           158.0068         D2E/DX2 =    0.0159             !
 ! D8    D(10,1,7,16)          -81.8218         D2E/DX2 =    0.0201             !
 ! D9    D(12,1,7,16)           37.9957         D2E/DX2 =    0.0207             !
 ! D10   D(2,1,10,5)           -53.5077         D2E/DX2 =    0.0178             !
 ! D11   D(7,1,10,5)          -171.8284         D2E/DX2 =    0.0465             !
 ! D12   D(12,1,10,5)           67.722          D2E/DX2 =    0.0249             !
 ! D13   D(1,2,3,4)              1.3152         D2E/DX2 =    0.0091             !
 ! D14   D(1,2,3,13)          -178.7911         D2E/DX2 =    0.0097             !
 ! D15   D(8,2,3,4)           -176.6334         D2E/DX2 =    0.0127             !
 ! D16   D(8,2,3,13)             3.2603         D2E/DX2 =    0.0103             !
 ! D17   D(1,2,8,17)            19.5711         D2E/DX2 =    0.0069             !
 ! D18   D(3,2,8,17)          -162.3654         D2E/DX2 =    0.0089             !
 ! D19   D(2,3,4,5)              8.9831         D2E/DX2 =    0.0104             !
 ! D20   D(2,3,4,9)            132.5744         D2E/DX2 =    0.023              !
 ! D21   D(2,3,4,14)          -112.5213         D2E/DX2 =    0.0158             !
 ! D22   D(13,3,4,5)          -170.9134         D2E/DX2 =    0.0095             !
 ! D23   D(13,3,4,9)           -47.3221         D2E/DX2 =    0.0204             !
 ! D24   D(13,3,4,14)           67.5822         D2E/DX2 =    0.0138             !
 ! D25   D(3,4,5,6)           -159.7644         D2E/DX2 =    0.0188             !
 ! D26   D(3,4,5,10)           -40.302          D2E/DX2 =    0.018              !
 ! D27   D(3,4,5,15)            79.1616         D2E/DX2 =    0.0157             !
 ! D28   D(9,4,5,6)             75.6635         D2E/DX2 =    0.02               !
 ! D29   D(9,4,5,10)          -164.874          D2E/DX2 =    0.0245             !
 ! D30   D(9,4,5,15)           -45.4105         D2E/DX2 =    0.018              !
 ! D31   D(14,4,5,6)           -37.9721         D2E/DX2 =    0.0155             !
 ! D32   D(14,4,5,10)           81.4904         D2E/DX2 =    0.0194             !
 ! D33   D(14,4,5,15)         -159.0461         D2E/DX2 =    0.0144             !
 ! D34   D(3,4,9,18)           -50.59           D2E/DX2 =    0.0126             !
 ! D35   D(5,4,9,18)            73.562          D2E/DX2 =    0.0121             !
 ! D36   D(14,4,9,18)         -169.2211         D2E/DX2 =    0.0132             !
 ! D37   D(4,5,6,11)          -174.53           D2E/DX2 =    0.0153             !
 ! D38   D(4,5,6,20)           -56.131          D2E/DX2 =    0.014              !
 ! D39   D(4,5,6,21)            62.2958         D2E/DX2 =    0.0146             !
 ! D40   D(10,5,6,11)           63.7707         D2E/DX2 =    0.0173             !
 ! D41   D(10,5,6,20)         -177.8302         D2E/DX2 =    0.0159             !
 ! D42   D(10,5,6,21)          -59.4035         D2E/DX2 =    0.0169             !
 ! D43   D(15,5,6,11)          -53.7929         D2E/DX2 =    0.0162             !
 ! D44   D(15,5,6,20)           64.6061         D2E/DX2 =    0.0157             !
 ! D45   D(15,5,6,21)         -176.9671         D2E/DX2 =    0.0147             !
 ! D46   D(4,5,10,1)            65.5549         D2E/DX2 =    0.0208             !
 ! D47   D(6,5,10,1)          -171.1789         D2E/DX2 =    0.029              !
 ! D48   D(15,5,10,1)          -53.5811         D2E/DX2 =    0.0192             !
 ! D49   D(5,6,11,19)          -57.3692         D2E/DX2 =    0.016              !
 ! D50   D(20,6,11,19)        -177.1991         D2E/DX2 =    0.022              !
 ! D51   D(21,6,11,19)          64.9181         D2E/DX2 =    0.023              !
 --------------------------------------------------------------------------------
 Trust Radius=3.00D-01 FncErr=1.00D-07 GrdErr=1.00D-06
 Number of steps in this run=    117 maximum allowed number of steps=    126.
 GradGradGradGradGradGradGradGradGradGradGradGradGradGradGradGradGradGrad

                          Input orientation:                          
 ---------------------------------------------------------------------
 Center     Atomic      Atomic             Coordinates (Angstroms)
 Number     Number       Type             X           Y           Z
 ---------------------------------------------------------------------
      1          6           0       -0.265044    0.883756   -0.023540
      2          6           0       -0.880912    1.449936   -1.284458
      3          6           0       -0.135276    1.992521   -2.243580
      4          6           0        1.360612    2.054225   -2.155329
      5          6           0        1.880088    1.232401   -0.965386
      6          6           0        3.277164    1.632852   -0.531809
      7          8           0       -1.081030    1.254699    1.050530
      8          8           0       -2.231168    1.329450   -1.385349
      9          8           0        1.986037    1.615692   -3.369125
     10          8           0        1.031152    1.406558    0.175088
     11          8           0        3.790526    0.782423    0.486309
     12          1           0       -0.204572   -0.212948   -0.092375
     13          1           0       -0.602183    2.409168   -3.129271
     14          1           0        1.687674    3.094359   -2.052615
     15          1           0        1.883268    0.170362   -1.250575
     16          1           0       -0.936163    0.654276    1.791423
     17          1           0       -2.590607    1.178410   -0.498310
     18          1           0        1.609569    0.761435   -3.617068
     19          1           0        3.175524    0.808957    1.229499
     20          1           0        3.954660    1.553169   -1.381497
     21          1           0        3.264242    2.676717   -0.195596
 ---------------------------------------------------------------------
                    Distance matrix (angstroms):
                    1          2          3          4          5
     1  C    0.000000
     2  C    1.513198   0.000000
     3  C    2.484911   1.330522   0.000000
     4  C    2.925283   2.479518   1.499758   0.000000
     5  C    2.368590   2.787875   2.504646   1.536624   0.000000
     6  C    3.656052   4.229601   3.834614   2.546869   1.516631
     7  O    1.398949   2.351666   3.505709   4.108331   3.582266
     8  O    2.432861   1.359370   2.359870   3.744202   4.133789
     9  O    4.098297   3.548621   2.430806   1.434144   2.436411
    10  O    1.411701   2.405856   2.748429   2.441077   1.432377
    11  O    4.088748   5.040191   4.932398   3.807915   2.441244
    12  H    1.100525   2.154920   3.081653   3.441752   2.682721
    13  H    3.476509   2.097893   1.084456   2.219710   3.496977
    14  H    3.580086   3.145127   2.138611   1.095170   2.164711
    15  H    2.574838   3.046169   2.894968   2.154226   1.099669
    16  H    1.948628   3.177604   4.325919   4.776179   3.983152
    17  H    2.391751   1.901266   3.120481   4.373202   4.495352
    18  H    4.054946   3.481034   2.539000   1.967223   2.706734
    19  H    3.662405   4.815133   4.942115   4.037531   2.583598
    20  H    4.483087   4.837647   4.202832   2.752991   2.140068
    21  H    3.962344   4.457904   4.027292   2.802117   2.143480
                    6          7          8          9         10
     6  C    0.000000
     7  O    4.651951   0.000000
     8  O    5.582320   2.694793   0.000000
     9  O    3.117317   5.391713   4.669274   0.000000
    10  O    2.365477   2.291456   3.617131   3.676545   0.000000
    11  O    1.422440   4.926809   6.329545   4.337613   2.846146
    12  H    3.965169   2.056307   2.856198   4.345088   2.054593
    13  H    4.732738   4.362663   2.619284   2.717723   3.819921
    14  H    2.641085   4.547480   4.349421   2.002168   2.870949
    15  H    2.144400   3.906140   4.276708   2.566670   2.070458
    16  H    4.909903   0.964581   3.496395   6.007898   2.654957
    17  H    5.885437   2.164151   0.968942   5.420191   3.690888
    18  H    3.613733   5.410093   4.478222   0.965898   3.889884
    19  H    1.947136   4.283569   6.028321   4.817991   2.463177
    20  H    1.089643   5.600180   6.189873   2.798223   3.315321
    21  H    1.096750   4.738813   5.781882   3.582020   2.595650
                   11         12         13         14         15
    11  O    0.000000
    12  H    4.157698   0.000000
    13  H    5.917315   4.031914   0.000000
    14  H    4.026558   4.285022   2.621473   0.000000
    15  H    2.651230   2.418146   3.836563   3.038303   0.000000
    16  H    4.905236   2.199091   5.234923   5.255012   4.175778
    17  H    6.468782   2.791742   3.520022   4.938665   4.647324
    18  H    4.647012   4.082156   2.800860   2.810008   2.454500
    19  H    0.965019   3.770503   5.985869   4.267204   2.868535
    20  H    2.027237   4.698960   4.955025   2.822214   2.493985
    21  H    2.080942   4.515915   4.860790   2.471540   3.049900
                   16         17         18         19         20
    16  H    0.000000
    17  H    2.873113   0.000000
    18  H    5.978630   5.248047   0.000000
    19  H    4.152789   6.030762   5.093494   0.000000
    20  H    5.898779   6.615209   3.335277   2.824571   0.000000
    21  H    5.067733   6.051100   4.255904   2.351020   1.773528
                   21
    21  H    0.000000
 Symmetry turned off by external request.
 Stoichiometry    C6H10O5
 Framework group  C1[X(C6H10O5)]
 Deg. of freedom    57
 Full point group                 C1      NOp   1
 Rotational constants (GHZ):      1.5607554      0.8685062      0.5842773
 Standard basis: 6-311+G(2df,p) (5D, 7F)
 Integral buffers will be    131072 words long.
 Raffenetti 2 integral format.
 Two-electron integral symmetry is turned off.
   434 basis functions,   652 primitive gaussians,   489 cartesian basis functions
    43 alpha electrons       43 beta electrons
       nuclear repulsion energy       678.4243302250 Hartrees.
 NAtoms=   21 NActive=   21 NUniq=   21 SFac= 1.00D+00 NAtFMM=   60 NAOKFM=F Big=F
 ------------------------------------------------------------------------------
 Polarizable Continuum Model (PCM)
 =================================
 Model                : PCM.
 Atomic radii         : UFF (Universal Force Field).
 Polarization charges : Total charges.
 Charge compensation  : None.
 Solution method      : Matrix inversion.
 Cavity type          : Scaled VdW (van der Waals Surface) (Alpha=1.100).
 Cavity algorithm     : GePol (No added spheres)
                        Default sphere list used, NSphG=   21.
                        Lebedev-Laikov grids with approx.  5.0 points / Ang**2.
                        Smoothing algorithm: Karplus/York (Gamma=1.0000).
                        Polarization charges: spherical gaussians, with
                                              point-specific exponents (IZeta= 3).
                        Self-potential: point-specific (ISelfS= 7).
                        Self-field    : sphere-specific E.n sum rule (ISelfD= 2).
 1st derivatives      : Analytical E(r).r(x)/FMM algorithm (CHGder, D1EAlg=3).
                        Cavity 1st derivative terms included.
 Solvent              : Ethanol, Eps=  24.852000 Eps(inf)=   1.852593
 ------------------------------------------------------------------------------
 One-electron integrals computed using PRISM.
 NBasis=   434 RedAO= T  NBF=   434
 NBsUse=   434 1.00D-06 NBFU=   434
 Initial guess read from the checkpoint file:  /store2/hmayes/glucose/glucEO3Dbb3lm.chk
 B after Tr=     0.000000    0.000000    0.000000
         Rot=    1.000000    0.000000    0.000000    0.000000 Ang=   0.00 deg.
 Requested convergence on RMS density matrix=1.00D-08 within 128 cycles.
 Requested convergence on MAX density matrix=1.00D-06.
 Requested convergence on             energy=1.00D-06.
 No special actions if energy rises.
 Error on total polarization charges =  0.01184
 SCF Done:  E(RM062X) =  -610.737118104     A.U. after   11 cycles
             Convg  =    0.8679D-08             -V/T =  2.0037
 QCSCF skips out because SCF is already converged.

 **********************************************************************

            Population analysis using the SCF density.

 **********************************************************************

 Alpha  occ. eigenvalues --  -19.66202 -19.65766 -19.65130 -19.63567 -19.63122
 Alpha  occ. eigenvalues --  -10.66532 -10.61353 -10.60603 -10.60237 -10.58982
 Alpha  occ. eigenvalues --  -10.53975  -1.22439  -1.19056  -1.16342  -1.15381
 Alpha  occ. eigenvalues --   -1.14389  -0.90488  -0.88237  -0.79180  -0.75953
 Alpha  occ. eigenvalues --   -0.71602  -0.66220  -0.65278  -0.62165  -0.61677
 Alpha  occ. eigenvalues --   -0.59184  -0.57413  -0.53887  -0.52751  -0.51549
 Alpha  occ. eigenvalues --   -0.51276  -0.49699  -0.47862  -0.46950  -0.46529
 Alpha  occ. eigenvalues --   -0.43316  -0.42407  -0.41728  -0.40826  -0.38601
 Alpha  occ. eigenvalues --   -0.36277  -0.34375  -0.30223
 Alpha virt. eigenvalues --    0.00478   0.02414   0.02532   0.02629   0.03559
 Alpha virt. eigenvalues --    0.04427   0.05065   0.05707   0.06416   0.07061
 Alpha virt. eigenvalues --    0.08198   0.09209   0.09792   0.10572   0.10983
 Alpha virt. eigenvalues --    0.11188   0.12633   0.13262   0.13626   0.14245
 Alpha virt. eigenvalues --    0.15472   0.15923   0.16537   0.17481   0.18627
 Alpha virt. eigenvalues --    0.18742   0.19386   0.20843   0.21028   0.21300
 Alpha virt. eigenvalues --    0.21783   0.22065   0.22676   0.23477   0.23839
 Alpha virt. eigenvalues --    0.24623   0.25142   0.25826   0.26367   0.27092
 Alpha virt. eigenvalues --    0.27277   0.28002   0.28572   0.29292   0.29316
 Alpha virt. eigenvalues --    0.30129   0.30500   0.31435   0.31856   0.32405
 Alpha virt. eigenvalues --    0.33528   0.34498   0.34859   0.34994   0.35422
 Alpha virt. eigenvalues --    0.36356   0.36723   0.38028   0.38723   0.38815
 Alpha virt. eigenvalues --    0.39227   0.40103   0.41958   0.44096   0.45922
 Alpha virt. eigenvalues --    0.48497   0.52005   0.53326   0.54511   0.55916
 Alpha virt. eigenvalues --    0.56724   0.57124   0.57993   0.58699   0.59769
 Alpha virt. eigenvalues --    0.60101   0.60783   0.61239   0.63122   0.64260
 Alpha virt. eigenvalues --    0.64943   0.66110   0.67420   0.68060   0.69392
 Alpha virt. eigenvalues --    0.71750   0.72044   0.72382   0.73876   0.74924
 Alpha virt. eigenvalues --    0.75345   0.75879   0.77458   0.79994   0.81470
 Alpha virt. eigenvalues --    0.83449   0.84674   0.85930   0.87822   0.89123
 Alpha virt. eigenvalues --    0.91783   0.93926   0.95421   0.98150   1.00290
 Alpha virt. eigenvalues --    1.02846   1.04676   1.05068   1.05627   1.06282
 Alpha virt. eigenvalues --    1.08625   1.10276   1.11702   1.12352   1.12743
 Alpha virt. eigenvalues --    1.14309   1.15084   1.15739   1.16429   1.17420
 Alpha virt. eigenvalues --    1.19720   1.20386   1.21431   1.23394   1.23900
 Alpha virt. eigenvalues --    1.25059   1.26019   1.28922   1.29775   1.30472
 Alpha virt. eigenvalues --    1.31325   1.32293   1.34599   1.37582   1.38982
 Alpha virt. eigenvalues --    1.40009   1.41350   1.42312   1.43775   1.44317
 Alpha virt. eigenvalues --    1.45389   1.48824   1.49661   1.53290   1.53640
 Alpha virt. eigenvalues --    1.54810   1.55815   1.58076   1.59378   1.61223
 Alpha virt. eigenvalues --    1.63857   1.64670   1.66551   1.69728   1.71066
 Alpha virt. eigenvalues --    1.75258   1.76396   1.77740   1.78721   1.80032
 Alpha virt. eigenvalues --    1.82557   1.84190   1.85627   1.86200   1.90934
 Alpha virt. eigenvalues --    1.92256   1.93051   1.97199   1.98441   2.01450
 Alpha virt. eigenvalues --    2.03818   2.05776   2.09647   2.09982   2.10949
 Alpha virt. eigenvalues --    2.14446   2.15090   2.17967   2.19584   2.20113
 Alpha virt. eigenvalues --    2.21773   2.22907   2.23421   2.24333   2.25845
 Alpha virt. eigenvalues --    2.30390   2.32321   2.33513   2.35406   2.36245
 Alpha virt. eigenvalues --    2.36957   2.38348   2.41930   2.45088   2.46862
 Alpha virt. eigenvalues --    2.47633   2.49996   2.51219   2.54409   2.54753
 Alpha virt. eigenvalues --    2.55587   2.57703   2.58849   2.59652   2.61522
 Alpha virt. eigenvalues --    2.64243   2.65278   2.68251   2.70982   2.74240
 Alpha virt. eigenvalues --    2.74705   2.77967   2.81490   2.85062   2.86188
 Alpha virt. eigenvalues --    2.86947   2.88324   2.92028   2.92899   2.95328
 Alpha virt. eigenvalues --    2.96198   2.96795   2.99276   3.01128   3.06268
 Alpha virt. eigenvalues --    3.06663   3.10123   3.10608   3.12406   3.15306
 Alpha virt. eigenvalues --    3.18298   3.19004   3.20517   3.22887   3.25109
 Alpha virt. eigenvalues --    3.27259   3.27567   3.29464   3.32417   3.35238
 Alpha virt. eigenvalues --    3.36457   3.37539   3.39423   3.40567   3.42791
 Alpha virt. eigenvalues --    3.43521   3.45179   3.46076   3.47132   3.49417
 Alpha virt. eigenvalues --    3.50905   3.51923   3.54265   3.54742   3.56245
 Alpha virt. eigenvalues --    3.57395   3.59406   3.62297   3.63232   3.64006
 Alpha virt. eigenvalues --    3.66080   3.68749   3.70715   3.72405   3.73147
 Alpha virt. eigenvalues --    3.76753   3.77594   3.79694   3.80227   3.82811
 Alpha virt. eigenvalues --    3.86583   3.88121   3.88167   3.91221   3.92600
 Alpha virt. eigenvalues --    3.95240   3.96740   3.98402   4.03746   4.06068
 Alpha virt. eigenvalues --    4.08542   4.11815   4.15857   4.19530   4.20695
 Alpha virt. eigenvalues --    4.21970   4.24079   4.28997   4.31515   4.38144
 Alpha virt. eigenvalues --    4.39246   4.44764   4.47671   4.55485   4.61122
 Alpha virt. eigenvalues --    4.61934   4.67603   4.71617   4.75340   4.81020
 Alpha virt. eigenvalues --    4.95730   4.97698   5.06035   5.13144   5.15325
 Alpha virt. eigenvalues --    5.16095   5.16341   5.17700   5.18435   5.19382
 Alpha virt. eigenvalues --    5.19678   5.20694   5.21704   5.22315   5.24223
 Alpha virt. eigenvalues --    5.25252   5.28502   5.29418   5.30623   5.34638
 Alpha virt. eigenvalues --    5.35877   5.36936   5.37511   5.38334   5.39823
 Alpha virt. eigenvalues --    5.40305   5.43186   5.44167   5.44442   5.49388
 Alpha virt. eigenvalues --    5.52025   5.56521   5.61727   5.66447   5.72099
 Alpha virt. eigenvalues --    5.77171   5.78496   5.78856   5.82939   5.83660
 Alpha virt. eigenvalues --    5.84820   5.88893   5.92327   6.11083   6.27044
 Alpha virt. eigenvalues --    6.29184   6.31018   6.31993   6.33440   6.42405
 Alpha virt. eigenvalues --    6.50279   6.51751   6.60732   6.73513   6.79560
 Alpha virt. eigenvalues --    6.90169   6.93340   6.93776   6.95040   7.11902
 Alpha virt. eigenvalues --    7.14270   7.15851   7.16146   7.18460   7.19442
 Alpha virt. eigenvalues --    7.22980   7.23924   7.26582   7.28579   7.35902
 Alpha virt. eigenvalues --    7.42043   7.45305   7.47455   7.53709   7.57031
 Alpha virt. eigenvalues --    7.59073   7.61278   7.63528   7.78012   7.83163
 Alpha virt. eigenvalues --   24.16107  24.38388  24.48484  24.53567  24.57126
 Alpha virt. eigenvalues --   24.92779  50.09391  50.09888  50.12336  50.14446
 Alpha virt. eigenvalues --   50.21341
          Condensed to atoms (all electrons):
              1          2          3          4          5          6
     1  C    6.123210  -0.237216  -0.072020   0.084632  -0.568502  -0.024480
     2  C   -0.237216   6.606189  -0.753366   0.054211   0.251077  -0.106879
     3  C   -0.072020  -0.753366   7.497523  -0.960749   0.422613   0.127337
     4  C    0.084632   0.054211  -0.960749   6.918188  -0.669303  -0.240149
     5  C   -0.568502   0.251077   0.422613  -0.669303   6.823375  -0.203492
     6  C   -0.024480  -0.106879   0.127337  -0.240149  -0.203492   5.823117
     7  O    0.294278  -0.129552  -0.035421   0.001984  -0.030353   0.004425
     8  O   -0.053756   0.485916  -0.344999  -0.007923  -0.011355   0.000194
     9  O    0.008450   0.008713  -0.077745   0.184320  -0.030073  -0.040101
    10  O    0.160201  -0.111636  -0.041774  -0.004414   0.111008  -0.083726
    11  O   -0.005634   0.010015  -0.006952   0.028138  -0.006621   0.083088
    12  H    0.460891  -0.038285  -0.041440   0.011758   0.000462   0.004666
    13  H   -0.002469  -0.000251   0.365419   0.007270  -0.003300  -0.001820
    14  H   -0.023782  -0.006521  -0.050252   0.488040  -0.074181   0.023314
    15  H   -0.033639   0.020595  -0.022825  -0.010743   0.407467  -0.004218
    16  H   -0.021964   0.019721  -0.006389  -0.000094   0.006168   0.000552
    17  H   -0.045917  -0.044899   0.076091  -0.003232   0.001892   0.001040
    18  H   -0.002176  -0.013005  -0.035210   0.113928  -0.040233   0.003736
    19  H   -0.002138   0.001861  -0.004927   0.020951  -0.056047   0.024366
    20  H    0.001887  -0.001647  -0.004507   0.013586  -0.126902   0.503937
    21  H   -0.007337   0.008674  -0.012783  -0.011574   0.057302   0.349526
              7          8          9         10         11         12
     1  C    0.294278  -0.053756   0.008450   0.160201  -0.005634   0.460891
     2  C   -0.129552   0.485916   0.008713  -0.111636   0.010015  -0.038285
     3  C   -0.035421  -0.344999  -0.077745  -0.041774  -0.006952  -0.041440
     4  C    0.001984  -0.007923   0.184320  -0.004414   0.028138   0.011758
     5  C   -0.030353  -0.011355  -0.030073   0.111008  -0.006621   0.000462
     6  C    0.004425   0.000194  -0.040101  -0.083726   0.083088   0.004666
     7  O    8.034193  -0.000806  -0.000130   0.033203   0.000345  -0.048968
     8  O   -0.000806   8.039332   0.000021   0.011364  -0.000029  -0.003089
     9  O   -0.000130   0.000021   8.124329   0.008545  -0.001277   0.001097
    10  O    0.033203   0.011364   0.008545   8.209656   0.010425  -0.051743
    11  O    0.000345  -0.000029  -0.001277   0.010425   8.120509  -0.000472
    12  H   -0.048968  -0.003089   0.001097  -0.051743  -0.000472   0.500237
    13  H   -0.000821  -0.003647   0.001692  -0.001465   0.000021  -0.000187
    14  H    0.000737   0.000349  -0.059333  -0.001870   0.000555  -0.000272
    15  H    0.002048  -0.000168   0.001315  -0.044425  -0.002908   0.005701
    16  H    0.287983   0.000429  -0.000004  -0.002888   0.000161  -0.003988
    17  H    0.017200   0.291262  -0.000009  -0.000491   0.000008   0.000884
    18  H    0.000003   0.000015   0.269853  -0.000379   0.000106  -0.000166
    19  H    0.000114  -0.000005   0.000146   0.017113   0.277582   0.000454
    20  H    0.000007  -0.000001   0.003758   0.009954  -0.047051   0.000045
    21  H    0.000248  -0.000015  -0.000831  -0.007626  -0.039903  -0.000025
             13         14         15         16         17         18
     1  C   -0.002469  -0.023782  -0.033639  -0.021964  -0.045917  -0.002176
     2  C   -0.000251  -0.006521   0.020595   0.019721  -0.044899  -0.013005
     3  C    0.365419  -0.050252  -0.022825  -0.006389   0.076091  -0.035210
     4  C    0.007270   0.488040  -0.010743  -0.000094  -0.003232   0.113928
     5  C   -0.003300  -0.074181   0.407467   0.006168   0.001892  -0.040233
     6  C   -0.001820   0.023314  -0.004218   0.000552   0.001040   0.003736
     7  O   -0.000821   0.000737   0.002048   0.287983   0.017200   0.000003
     8  O   -0.003647   0.000349  -0.000168   0.000429   0.291262   0.000015
     9  O    0.001692  -0.059333   0.001315  -0.000004  -0.000009   0.269853
    10  O   -0.001465  -0.001870  -0.044425  -0.002888  -0.000491  -0.000379
    11  O    0.000021   0.000555  -0.002908   0.000161   0.000008   0.000106
    12  H   -0.000187  -0.000272   0.005701  -0.003988   0.000884  -0.000166
    13  H    0.455162  -0.003142  -0.000396   0.000026   0.000007  -0.000190
    14  H   -0.003142   0.510023   0.004929  -0.000016   0.000049   0.004365
    15  H   -0.000396   0.004929   0.483304  -0.000258   0.000060   0.000598
    16  H    0.000026  -0.000016  -0.000258   0.380536  -0.001799  -0.000002
    17  H    0.000007   0.000049   0.000060  -0.001799   0.366816  -0.000007
    18  H   -0.000190   0.004365   0.000598  -0.000002  -0.000007   0.388555
    19  H   -0.000002   0.000033   0.001362  -0.000131  -0.000001  -0.000015
    20  H   -0.000003  -0.000858  -0.004675   0.000002   0.000000  -0.000626
    21  H    0.000002   0.002776   0.004921  -0.000024   0.000001   0.000050
             19         20         21
     1  C   -0.002138   0.001887  -0.007337
     2  C    0.001861  -0.001647   0.008674
     3  C   -0.004927  -0.004507  -0.012783
     4  C    0.020951   0.013586  -0.011574
     5  C   -0.056047  -0.126902   0.057302
     6  C    0.024366   0.503937   0.349526
     7  O    0.000114   0.000007   0.000248
     8  O   -0.000005  -0.000001  -0.000015
     9  O    0.000146   0.003758  -0.000831
    10  O    0.017113   0.009954  -0.007626
    11  O    0.277582  -0.047051  -0.039903
    12  H    0.000454   0.000045  -0.000025
    13  H   -0.000002  -0.000003   0.000002
    14  H    0.000033  -0.000858   0.002776
    15  H    0.001362  -0.004675   0.004921
    16  H   -0.000131   0.000002  -0.000024
    17  H   -0.000001   0.000000   0.000001
    18  H   -0.000015  -0.000626   0.000050
    19  H    0.395778   0.005877  -0.004390
    20  H    0.005877   0.480649  -0.033095
    21  H   -0.004390  -0.033095   0.503359
 Mulliken atomic charges:
              1
     1  C   -0.032520
     2  C   -0.023715
     3  C   -0.017622
     4  C   -0.018826
     5  C   -0.261003
     6  C   -0.244432
     7  O   -0.430715
     8  O   -0.403086
     9  O   -0.402737
    10  O   -0.219034
    11  O   -0.420105
    12  H    0.202439
    13  H    0.188092
    14  H    0.185058
    15  H    0.191955
    16  H    0.341979
    17  H    0.341045
    18  H    0.310801
    19  H    0.322019
    20  H    0.199661
    21  H    0.190745
 Sum of Mulliken atomic charges =   0.00000
 Mulliken charges with hydrogens summed into heavy atoms:
              1
     1  C    0.169919
     2  C   -0.023715
     3  C    0.170470
     4  C    0.166233
     5  C   -0.069048
     6  C    0.145975
     7  O   -0.088736
     8  O   -0.062042
     9  O   -0.091936
    10  O   -0.219034
    11  O   -0.098086
 Sum of Mulliken charges with hydrogens summed into heavy atoms =   0.00000
 Electronic spatial extent (au):  <R**2>=           2929.8384
 Charge=              0.0000 electrons
 Dipole moment (field-independent basis, Debye):
    X=             -2.3600    Y=             -2.5992    Z=              2.0459  Tot=              4.0634
 Quadrupole moment (field-independent basis, Debye-Ang):
   XX=            -80.4864   YY=            -69.6882   ZZ=            -66.0470
   XY=              1.4432   XZ=             -2.1332   YZ=              3.3323
 Traceless Quadrupole moment (field-independent basis, Debye-Ang):
   XX=             -8.4126   YY=              2.3857   ZZ=              6.0269
   XY=              1.4432   XZ=             -2.1332   YZ=              3.3323
 Octapole moment (field-independent basis, Debye-Ang**2):
  XXX=           -234.6298  YYY=           -281.2328  ZZZ=            213.5811  XYY=            -45.8109
  XXY=            -98.7833  XXZ=             75.8823  XZZ=            -63.3552  YZZ=           -114.7601
  YYZ=             63.2552  XYZ=              8.0627
 Hexadecapole moment (field-independent basis, Debye-Ang**3):
 XXXX=          -1963.9799 YYYY=           -938.7554 ZZZZ=          -1120.0865 XXXY=           -242.2375
 XXXZ=            104.3004 YYYX=           -197.2636 YYYZ=            321.3338 ZZZX=            222.0118
 ZZZY=            421.8168 XXYY=           -432.9728 XXZZ=           -520.8781 YYZZ=           -378.8444
 XXYZ=            143.8588 YYXZ=             64.9117 ZZXY=           -128.7731
 N-N= 6.784243302250D+02 E-N=-2.790022470333D+03  KE= 6.084771802016D+02
 D1PCM: PCM CHGder 1st derivatives, ID1Alg=3 FixD1E=F DoIter=F DoCFld=F I1PDM=0.
 Calling FoFJK, ICntrl=      2127 FMM=F ISym2X=0 I1Cent= 0 IOpClX= 0 NMat=1 NMatS=1 NMatT=0.
 -------------------------------------------------------------------
 Center     Atomic                   Forces (Hartrees/Bohr)
 Number     Number              X              Y              Z
 -------------------------------------------------------------------
      1        6           0.002209803    0.001885919    0.004417414
      2        6          -0.000930799    0.001096498   -0.002375761
      3        6          -0.001515896   -0.001692446    0.002554458
      4        6           0.005020013   -0.002087295   -0.003041140
      5        6          -0.003892867    0.000478352    0.003143547
      6        6           0.000737862   -0.002312778    0.003134921
      7        8           0.003602294   -0.001879715   -0.004537794
      8        8           0.004774300   -0.000114947    0.002777813
      9        8          -0.004020175    0.000205392    0.006780821
     10        8          -0.001240953   -0.001400798   -0.005217700
     11        8          -0.004689330    0.003252457   -0.003543689
     12        1           0.000032916    0.000728504   -0.000521018
     13        1          -0.000234897   -0.000364604    0.000147997
     14        1          -0.000255220   -0.000227025    0.000700829
     15        1          -0.000328639   -0.000254861   -0.000091479
     16        1           0.000139849    0.001130970   -0.001525146
     17        1           0.000718500    0.000419245   -0.001637353
     18        1           0.000432762    0.001475285    0.001006688
     19        1           0.000583971    0.000299592   -0.001531016
     20        1          -0.000507978   -0.000025154   -0.000573889
     21        1          -0.000635516   -0.000612588   -0.000068503
 -------------------------------------------------------------------
 Cartesian Forces:  Max     0.006780821 RMS     0.002354094

 GradGradGradGradGradGradGradGradGradGradGradGradGradGradGradGradGradGrad
 Berny optimization.
 Internal  Forces:  Max     0.008670438 RMS     0.002065544
 Search for a local minimum.
 Step number   1 out of a maximum of  117
 All quantities printed in internal units (Hartrees-Bohrs-Radians)
 Mixed Optimization -- RFO/linear search
 Second derivative matrix not updated -- first step.
 ITU=  0
     Eigenvalues ---    0.00249   0.00276   0.00322   0.00371   0.00531
     Eigenvalues ---    0.00617   0.01135   0.01293   0.01431   0.02330
     Eigenvalues ---    0.03556   0.04339   0.04730   0.04870   0.05533
     Eigenvalues ---    0.06172   0.06593   0.06933   0.07282   0.07457
     Eigenvalues ---    0.09375   0.10113   0.10409   0.11764   0.12395
     Eigenvalues ---    0.14356   0.15283   0.15533   0.16712   0.17027
     Eigenvalues ---    0.17408   0.18192   0.18568   0.21037   0.21887
     Eigenvalues ---    0.22688   0.24804   0.25347   0.27820   0.29730
     Eigenvalues ---    0.30212   0.30856   0.31451   0.31696   0.32099
     Eigenvalues ---    0.32680   0.33823   0.35432   0.35625   0.37233
     Eigenvalues ---    0.40770   0.41801   0.50849   0.51518   0.51985
     Eigenvalues ---    0.52337   0.58285
 RFO step:  Lambda=-1.42584347D-03 EMin= 2.48570365D-03
 Linear search not attempted -- first point.
 Iteration  1 RMS(Cart)=  0.02535504 RMS(Int)=  0.00020634
 Iteration  2 RMS(Cart)=  0.00023132 RMS(Int)=  0.00004021
 Iteration  3 RMS(Cart)=  0.00000006 RMS(Int)=  0.00004021
 Variable       Old X    -DE/DX   Delta X   Delta X   Delta X     New X
                                 (Linear)    (Quad)   (Total)
    R1        2.85953  -0.00247   0.00000  -0.00139  -0.00138   2.85815
    R2        2.64363  -0.00704   0.00000  -0.01899  -0.01899   2.62464
    R3        2.66773  -0.00696   0.00000  -0.01866  -0.01869   2.64904
    R4        2.07969  -0.00069   0.00000  -0.00016  -0.00016   2.07953
    R5        2.51432  -0.00538   0.00000  -0.00720  -0.00717   2.50715
    R6        2.56884  -0.00557   0.00000  -0.01257  -0.01257   2.55627
    R7        2.83413  -0.00187   0.00000   0.00117   0.00119   2.83532
    R8        2.04933  -0.00016   0.00000  -0.00027  -0.00027   2.04906
    R9        2.90380  -0.00511   0.00000  -0.01513  -0.01514   2.88866
   R10        2.71014  -0.00867   0.00000  -0.02896  -0.02896   2.68118
   R11        2.06957  -0.00023   0.00000   0.00011   0.00011   2.06969
   R12        2.86602  -0.00474   0.00000  -0.00966  -0.00966   2.85636
   R13        2.70680  -0.00719   0.00000  -0.02415  -0.02416   2.68264
   R14        2.07807   0.00027   0.00000   0.00233   0.00233   2.08040
   R15        2.68802  -0.00724   0.00000  -0.02113  -0.02113   2.66690
   R16        2.05913   0.00014   0.00000   0.00046   0.00046   2.05959
   R17        2.07256  -0.00060   0.00000  -0.00034  -0.00034   2.07222
   R18        1.82279  -0.00185   0.00000  -0.00329  -0.00329   1.81950
   R19        1.83103  -0.00183   0.00000  -0.00371  -0.00371   1.82733
   R20        1.82528  -0.00173   0.00000  -0.00343  -0.00343   1.82185
   R21        1.82362  -0.00155   0.00000  -0.00276  -0.00276   1.82086
    A1        1.87880  -0.00130   0.00000  -0.00589  -0.00582   1.87298
    A2        1.93090   0.00062   0.00000  -0.00075  -0.00078   1.93012
    A3        1.92102  -0.00002   0.00000  -0.00570  -0.00573   1.91529
    A4        1.90640  -0.00020   0.00000   0.00395   0.00394   1.91034
    A5        1.92230   0.00084   0.00000   0.00747   0.00744   1.92974
    A6        1.90434   0.00006   0.00000   0.00101   0.00100   1.90534
    A7        2.12372   0.00035   0.00000   0.00086   0.00082   2.12454
    A8        2.01856  -0.00117   0.00000  -0.00585  -0.00583   2.01273
    A9        2.14040   0.00082   0.00000   0.00507   0.00510   2.14549
   A10        2.13332  -0.00190   0.00000  -0.00757  -0.00761   2.12571
   A11        2.09917   0.00058   0.00000   0.00067   0.00068   2.09985
   A12        2.05069   0.00131   0.00000   0.00689   0.00691   2.05760
   A13        1.93987  -0.00027   0.00000  -0.00841  -0.00850   1.93137
   A14        1.95259   0.00002   0.00000   0.00087   0.00083   1.95342
   A15        1.92033   0.00042   0.00000   0.00092   0.00091   1.92124
   A16        1.92244  -0.00076   0.00000  -0.00301  -0.00294   1.91950
   A17        1.91172  -0.00001   0.00000  -0.00268  -0.00272   1.90900
   A18        1.81270   0.00066   0.00000   0.01367   0.01365   1.82636
   A19        1.97315  -0.00179   0.00000  -0.00719  -0.00715   1.96600
   A20        1.92963   0.00114   0.00000   0.00150   0.00137   1.93100
   A21        1.89301   0.00046   0.00000   0.00085   0.00088   1.89389
   A22        1.86109  -0.00049   0.00000  -0.00070  -0.00066   1.86042
   A23        1.90338   0.00076   0.00000   0.00229   0.00226   1.90563
   A24        1.90247  -0.00004   0.00000   0.00359   0.00363   1.90610
   A25        1.95974  -0.00321   0.00000  -0.01197  -0.01199   1.94776
   A26        1.90764   0.00016   0.00000  -0.00034  -0.00031   1.90733
   A27        1.90508   0.00025   0.00000  -0.00643  -0.00645   1.89863
   A28        1.86504   0.00163   0.00000   0.01250   0.01249   1.87753
   A29        1.93250   0.00116   0.00000   0.00469   0.00460   1.93711
   A30        1.89228   0.00012   0.00000   0.00233   0.00230   1.89458
   A31        1.91460  -0.00064   0.00000   0.00279   0.00279   1.91739
   A32        1.89056  -0.00011   0.00000   0.00331   0.00331   1.89387
   A33        1.89412  -0.00109   0.00000  -0.00002  -0.00002   1.89410
   A34        1.96831  -0.00114   0.00000  -0.00957  -0.00963   1.95868
   A35        1.88051  -0.00114   0.00000  -0.00361  -0.00361   1.87689
    D1        2.42782  -0.00018   0.00000  -0.00764  -0.00760   2.42022
    D2       -0.74722  -0.00022   0.00000  -0.00476  -0.00477  -0.75200
    D3        0.34599   0.00050   0.00000  -0.00841  -0.00839   0.33760
    D4       -2.82904   0.00045   0.00000  -0.00553  -0.00556  -2.83461
    D5       -1.75997   0.00003   0.00000  -0.00546  -0.00540  -1.76537
    D6        1.34818  -0.00001   0.00000  -0.00258  -0.00257   1.34561
    D7        2.75774   0.00008   0.00000   0.03129   0.03128   2.78902
    D8       -1.42806  -0.00005   0.00000   0.02918   0.02915  -1.39891
    D9        0.66315   0.00041   0.00000   0.03745   0.03749   0.70064
   D10       -0.93389  -0.00061   0.00000  -0.00507  -0.00494  -0.93883
   D11       -2.99897   0.00073   0.00000   0.00016   0.00023  -2.99874
   D12        1.18197  -0.00020   0.00000  -0.01196  -0.01191   1.17007
   D13        0.02295  -0.00005   0.00000   0.00569   0.00562   0.02858
   D14       -3.12049  -0.00036   0.00000  -0.00107  -0.00114  -3.12164
   D15       -3.08283   0.00004   0.00000   0.00283   0.00280  -3.08004
   D16        0.05690  -0.00027   0.00000  -0.00393  -0.00397   0.05293
   D17        0.34158   0.00014   0.00000   0.00787   0.00789   0.34947
   D18       -2.83381   0.00009   0.00000   0.01069   0.01066  -2.82315
   D19        0.15679   0.00005   0.00000   0.01066   0.01055   0.16733
   D20        2.31386  -0.00113   0.00000   0.00116   0.00110   2.31496
   D21       -1.96387  -0.00004   0.00000   0.01901   0.01897  -1.94490
   D22       -2.98300   0.00035   0.00000   0.01724   0.01716  -2.96584
   D23       -0.82593  -0.00082   0.00000   0.00775   0.00772  -0.81821
   D24        1.17953   0.00026   0.00000   0.02560   0.02558   1.20512
   D25       -2.78842  -0.00025   0.00000  -0.02452  -0.02451  -2.81293
   D26       -0.70340  -0.00128   0.00000  -0.02918  -0.02918  -0.73258
   D27        1.38163  -0.00037   0.00000  -0.02337  -0.02337   1.35826
   D28        1.32058   0.00046   0.00000  -0.01748  -0.01750   1.30308
   D29       -2.87759  -0.00057   0.00000  -0.02214  -0.02217  -2.89976
   D30       -0.79256   0.00035   0.00000  -0.01632  -0.01635  -0.80892
   D31       -0.66274   0.00010   0.00000  -0.03071  -0.03072  -0.69346
   D32        1.42228  -0.00094   0.00000  -0.03537  -0.03539   1.38689
   D33       -2.77588  -0.00002   0.00000  -0.02955  -0.02957  -2.80545
   D34       -0.88296   0.00051   0.00000  -0.00340  -0.00335  -0.88632
   D35        1.28390  -0.00038   0.00000  -0.01586  -0.01587   1.26802
   D36       -2.95346  -0.00039   0.00000  -0.01301  -0.01304  -2.96651
   D37       -3.04612  -0.00025   0.00000  -0.01860  -0.01863  -3.06475
   D38       -0.97967  -0.00010   0.00000  -0.01068  -0.01072  -0.99039
   D39        1.08727   0.00028   0.00000  -0.01182  -0.01189   1.07538
   D40        1.11301  -0.00023   0.00000  -0.01559  -0.01552   1.09749
   D41       -3.10372  -0.00009   0.00000  -0.00766  -0.00761  -3.11133
   D42       -1.03679   0.00029   0.00000  -0.00881  -0.00878  -1.04557
   D43       -0.93886  -0.00031   0.00000  -0.02062  -0.02061  -0.95947
   D44        1.12759  -0.00017   0.00000  -0.01270  -0.01270   1.11489
   D45       -3.08866   0.00022   0.00000  -0.01384  -0.01387  -3.10253
   D46        1.14415   0.00135   0.00000   0.02871   0.02872   1.17287
   D47       -2.98764  -0.00048   0.00000   0.02035   0.02035  -2.96728
   D48       -0.93517   0.00012   0.00000   0.02453   0.02454  -0.91063
   D49       -1.00128   0.00020   0.00000   0.02304   0.02303  -0.97825
   D50       -3.09271   0.00083   0.00000   0.02238   0.02244  -3.07027
   D51        1.13304  -0.00090   0.00000   0.00968   0.00963   1.14267
         Item               Value     Threshold  Converged?
 Maximum Force            0.008670     0.000015     NO 
 RMS     Force            0.002066     0.000010     NO 
 Maximum Displacement     0.109817     0.000060     NO 
 RMS     Displacement     0.025347     0.000040     NO 
 Predicted change in Energy=-7.278466D-04
 GradGradGradGradGradGradGradGradGradGradGradGradGradGradGradGradGradGrad

                          Input orientation:                          
 ---------------------------------------------------------------------
 Center     Atomic      Atomic             Coordinates (Angstroms)
 Number     Number       Type             X           Y           Z
 ---------------------------------------------------------------------
      1          6           0       -0.248772    0.889404   -0.023482
      2          6           0       -0.869576    1.442098   -1.287084
      3          6           0       -0.132726    1.991256   -2.243993
      4          6           0        1.362700    2.064457   -2.146469
      5          6           0        1.867409    1.234994   -0.965829
      6          6           0        3.266477    1.618335   -0.541154
      7          8           0       -1.066592    1.261278    1.035724
      8          8           0       -2.211627    1.301419   -1.381754
      9          8           0        1.993164    1.637440   -3.343643
     10          8           0        1.034255    1.420499    0.168489
     11          8           0        3.748219    0.774557    0.482380
     12          1           0       -0.179551   -0.206709   -0.092095
     13          1           0       -0.603574    2.397053   -3.132459
     14          1           0        1.680899    3.105020   -2.021934
     15          1           0        1.855232    0.172660   -1.254409
     16          1           0       -0.902334    0.688939    1.792366
     17          1           0       -2.568474    1.156737   -0.494751
     18          1           0        1.628152    0.780766   -3.593303
     19          1           0        3.117411    0.811193    1.209831
     20          1           0        3.940301    1.521061   -1.392243
     21          1           0        3.262569    2.665961   -0.217222
 ---------------------------------------------------------------------
                    Distance matrix (angstroms):
                    1          2          3          4          5
     1  C    0.000000
     2  C    1.512467   0.000000
     3  C    2.481576   1.326725   0.000000
     4  C    2.912846   2.471625   1.500389   0.000000
     5  C    2.342152   2.763546   2.491220   1.528611   0.000000
     6  C    3.627162   4.206472   3.820119   2.529906   1.511519
     7  O    1.388898   2.338151   3.487338   4.083248   3.551799
     8  O    2.422284   1.352721   2.353967   3.734010   4.100724
     9  O    4.075452   3.530280   2.419467   1.418821   2.414907
    10  O    1.401811   2.396608   2.740014   2.425199   1.419590
    11  O    4.030511   4.990054   4.896447   3.776954   2.418006
    12  H    1.100438   2.150045   3.076347   3.428875   2.651785
    13  H    3.473417   2.094781   1.084316   2.224642   3.485746
    14  H    3.553364   3.132130   2.139863   1.095231   2.155723
    15  H    2.540814   3.006180   2.870286   2.148779   1.100899
    16  H    1.940266   3.170384   4.310514   4.747300   3.946809
    17  H    2.382137   1.896174   3.112739   4.359617   4.461514
    18  H    4.034633   3.463329   2.527174   1.952346   2.677159
    19  H    3.585857   4.746440   4.887212   3.989289   2.544722
    20  H    4.452060   4.811675   4.187614   2.740103   2.135543
    21  H    3.939950   4.440390   4.011365   2.773680   2.134139
                    6          7          8          9         10
     6  C    0.000000
     7  O    4.624881   0.000000
     8  O    5.551276   2.675242   0.000000
     9  O    3.078252   5.355601   4.652115   0.000000
    10  O    2.350649   2.278378   3.599052   3.647141   0.000000
    11  O    1.411261   4.870882   6.266764   4.296886   2.807378
    12  H    3.925245   2.052756   2.840247   4.323672   2.046713
    13  H    4.722135   4.344896   2.617482   2.713791   3.812138
    14  H    2.630019   4.505260   4.337575   1.999554   2.837906
    15  H    2.142503   3.868702   4.222517   2.555289   2.062945
    16  H    4.867040   0.962839   3.487753   5.971780   2.631071
    17  H    5.853365   2.146842   0.966979   5.399611   3.672753
    18  H    3.563880   5.377772   4.461605   0.964082   3.861741
    19  H    1.933817   4.211743   5.946031   4.762430   2.407320
    20  H    1.089887   5.570592   6.155856   2.759140   3.300167
    21  H    1.096571   4.720661   5.760635   3.527570   2.581730
                   11         12         13         14         15
    11  O    0.000000
    12  H    4.089044   0.000000
    13  H    5.885376   4.025318   0.000000
    14  H    3.997056   4.260646   2.636911   0.000000
    15  H    2.638582   2.373865   3.810606   3.036153   0.000000
    16  H    4.832291   2.208121   5.221189   5.201868   4.141685
    17  H    6.403238   2.779941   3.515213   4.917852   4.595069
    18  H    4.594117   4.062185   2.793808   2.806090   2.427299
    19  H    0.963558   3.687966   5.934321   4.215390   2.841355
    20  H    2.026912   4.652822   4.943937   2.830254   2.486905
    21  H    2.074296   4.485095   4.849533   2.439557   3.045144
                   16         17         18         19         20
    16  H    0.000000
    17  H    2.868059   0.000000
    18  H    5.951237   5.230110   0.000000
    19  H    4.063576   5.945948   5.028808   0.000000
    20  H    5.855363   6.580455   3.277001   2.819902   0.000000
    21  H    5.029262   6.029580   4.197999   2.344721   1.775047
                   21
    21  H    0.000000
 Symmetry turned off by external request.
 Stoichiometry    C6H10O5
 Framework group  C1[X(C6H10O5)]
 Deg. of freedom    57
 Full point group                 C1      NOp   1
 Rotational constants (GHZ):      1.5788944      0.8822923      0.5930559
 Standard basis: 6-311+G(2df,p) (5D, 7F)
 Integral buffers will be    131072 words long.
 Raffenetti 2 integral format.
 Two-electron integral symmetry is turned off.
   434 basis functions,   652 primitive gaussians,   489 cartesian basis functions
    43 alpha electrons       43 beta electrons
       nuclear repulsion energy       682.5768632447 Hartrees.
 NAtoms=   21 NActive=   21 NUniq=   21 SFac= 1.00D+00 NAtFMM=   60 NAOKFM=F Big=F
 ------------------------------------------------------------------------------
 Polarizable Continuum Model (PCM)
 =================================
 Model                : PCM.
 Atomic radii         : UFF (Universal Force Field).
 Polarization charges : Total charges.
 Charge compensation  : None.
 Solution method      : Matrix inversion.
 Cavity type          : Scaled VdW (van der Waals Surface) (Alpha=1.100).
 Cavity algorithm     : GePol (No added spheres)
                        Default sphere list used, NSphG=   21.
                        Lebedev-Laikov grids with approx.  5.0 points / Ang**2.
                        Smoothing algorithm: Karplus/York (Gamma=1.0000).
                        Polarization charges: spherical gaussians, with
                                              point-specific exponents (IZeta= 3).
                        Self-potential: point-specific (ISelfS= 7).
                        Self-field    : sphere-specific E.n sum rule (ISelfD= 2).
 1st derivatives      : Analytical E(r).r(x)/FMM algorithm (CHGder, D1EAlg=3).
                        Cavity 1st derivative terms included.
 Solvent              : Ethanol, Eps=  24.852000 Eps(inf)=   1.852593
 ------------------------------------------------------------------------------
 One-electron integrals computed using PRISM.
 NBasis=   434 RedAO= T  NBF=   434
 NBsUse=   434 1.00D-06 NBFU=   434
 Initial guess read from the read-write file.
 B after Tr=     0.000000    0.000000    0.000000
         Rot=    1.000000    0.000000    0.000000    0.000000 Ang=   0.00 deg.
 Harris functional with IExCor= 1009 diagonalized for initial guess.
 ExpMin= 4.38D-02 ExpMax= 8.59D+03 ExpMxC= 1.30D+03 IAcc=3 IRadAn=         5 AccDes= 0.00D+00
 HarFok:  IExCor= 1009 AccDes= 0.00D+00 IRadAn=         5 IDoV= 1
 ScaDFX=  1.000000  1.000000  1.000000  1.000000
 FoFCou: FMM=F IPFlag=           0 FMFlag=      100000 FMFlg1=           0
         NFxFlg=           0 DoJE=T BraDBF=F KetDBF=T FulRan=T
         Omega=  0.000000  0.000000  1.000000  0.000000  0.000000 ICntrl=     500 IOpCl=  0
         NMat0=    1 NMatS0=    1 NMatT0=    0 NMatD0=    1 NMtDS0=    0 NMtDT0=    0
         I1Cent=           4 NGrid=           0.
 Symmetry not used in FoFCou.
 Requested convergence on RMS density matrix=1.00D-08 within 128 cycles.
 Requested convergence on MAX density matrix=1.00D-06.
 Requested convergence on             energy=1.00D-06.
 No special actions if energy rises.
 Error on total polarization charges =  0.01186
 SCF Done:  E(RM062X) =  -610.737801503     A.U. after   10 cycles
             Convg  =    0.6525D-08             -V/T =  2.0034
 QCSCF skips out because SCF is already converged.
 D1PCM: PCM CHGder 1st derivatives, ID1Alg=3 FixD1E=F DoIter=F DoCFld=F I1PDM=0.
 Calling FoFJK, ICntrl=      2127 FMM=F ISym2X=0 I1Cent= 0 IOpClX= 0 NMat=1 NMatS=1 NMatT=0.
 -------------------------------------------------------------------
 Center     Atomic                   Forces (Hartrees/Bohr)
 Number     Number              X              Y              Z
 -------------------------------------------------------------------
      1        6          -0.000227493   -0.000357154   -0.000466666
      2        6           0.000258600   -0.000085306    0.000169009
      3        6           0.000166908    0.000148101   -0.000153420
      4        6          -0.000499568    0.000390381    0.000566390
      5        6           0.000389888   -0.000195136   -0.000409712
      6        6          -0.000076151    0.000370312   -0.000431841
      7        8          -0.000396031    0.000122496    0.000381334
      8        8          -0.000283371   -0.000050262   -0.000057943
      9        8           0.000437862   -0.000154043   -0.000774472
     10        8           0.000078129    0.000273178    0.000567653
     11        8           0.000285630   -0.000306698    0.000430202
     12        1          -0.000060710    0.000027516    0.000012571
     13        1          -0.000002563   -0.000038647    0.000004924
     14        1          -0.000061978   -0.000037574    0.000064055
     15        1          -0.000040300    0.000042450   -0.000017777
     16        1           0.000073565    0.000015472    0.000043833
     17        1          -0.000027716    0.000010350    0.000016402
     18        1          -0.000001249   -0.000081113   -0.000002342
     19        1          -0.000014560   -0.000025565    0.000043656
     20        1          -0.000017607   -0.000045636    0.000027145
     21        1           0.000018714   -0.000023123   -0.000013000
 -------------------------------------------------------------------
 Cartesian Forces:  Max     0.000774472 RMS     0.000252201

 GradGradGradGradGradGradGradGradGradGradGradGradGradGradGradGradGradGrad
 Berny optimization.
 Using GEDIIS/GDIIS optimizer.
 Internal  Forces:  Max     0.000919997 RMS     0.000158381
 Search for a local minimum.
 Step number   2 out of a maximum of  117
 All quantities printed in internal units (Hartrees-Bohrs-Radians)
 Mixed Optimization -- En-DIIS/RFO-DIIS
 Update second derivatives using D2CorX and points    1    2
 DE= -6.83D-04 DEPred=-7.28D-04 R= 9.39D-01
 SS=  1.41D+00  RLast= 1.45D-01 DXNew= 5.0454D-01 4.3406D-01
 Trust test= 9.39D-01 RLast= 1.45D-01 DXMaxT set to 4.34D-01
 ITU=  1  0
 Use linear search instead of GDIIS.
     Eigenvalues ---    0.00249   0.00275   0.00322   0.00371   0.00531
     Eigenvalues ---    0.00618   0.01137   0.01293   0.01432   0.02330
     Eigenvalues ---    0.03556   0.04345   0.04728   0.04871   0.05542
     Eigenvalues ---    0.06171   0.06597   0.06935   0.07281   0.07465
     Eigenvalues ---    0.09375   0.10113   0.10407   0.11743   0.12411
     Eigenvalues ---    0.14360   0.15284   0.15564   0.16713   0.17025
     Eigenvalues ---    0.17407   0.18193   0.18573   0.21037   0.21947
     Eigenvalues ---    0.22715   0.24795   0.25535   0.27795   0.29764
     Eigenvalues ---    0.30164   0.30895   0.31488   0.31822   0.32114
     Eigenvalues ---    0.32716   0.33861   0.35468   0.35976   0.37675
     Eigenvalues ---    0.41349   0.41950   0.50840   0.51527   0.51985
     Eigenvalues ---    0.52331   0.58474
 RFO step:  Lambda=-1.26970412D-05 EMin= 2.49399700D-03
 Quartic linear search produced a step of -0.05043.
 Iteration  1 RMS(Cart)=  0.00875366 RMS(Int)=  0.00003056
 Iteration  2 RMS(Cart)=  0.00004129 RMS(Int)=  0.00000376
 Iteration  3 RMS(Cart)=  0.00000000 RMS(Int)=  0.00000376
 Variable       Old X    -DE/DX   Delta X   Delta X   Delta X     New X
                                 (Linear)    (Quad)   (Total)
    R1        2.85815  -0.00001   0.00007  -0.00077  -0.00069   2.85746
    R2        2.62464   0.00055   0.00096   0.00053   0.00149   2.62613
    R3        2.64904   0.00054   0.00094   0.00077   0.00172   2.65076
    R4        2.07953  -0.00003   0.00001  -0.00021  -0.00020   2.07933
    R5        2.50715   0.00026   0.00036  -0.00010   0.00026   2.50741
    R6        2.55627   0.00032   0.00063   0.00043   0.00107   2.55734
    R7        2.83532  -0.00001  -0.00006  -0.00022  -0.00029   2.83504
    R8        2.04906  -0.00002   0.00001  -0.00009  -0.00008   2.04898
    R9        2.88866   0.00019   0.00076  -0.00102  -0.00026   2.88840
   R10        2.68118   0.00092   0.00146   0.00121   0.00267   2.68385
   R11        2.06969  -0.00005  -0.00001  -0.00027  -0.00027   2.06941
   R12        2.85636   0.00019   0.00049  -0.00035   0.00014   2.85649
   R13        2.68264   0.00066   0.00122   0.00118   0.00240   2.68503
   R14        2.08040  -0.00004  -0.00012  -0.00013  -0.00025   2.08015
   R15        2.66690   0.00063   0.00107   0.00086   0.00193   2.66882
   R16        2.05959  -0.00003  -0.00002  -0.00016  -0.00018   2.05940
   R17        2.07222  -0.00003   0.00002  -0.00023  -0.00021   2.07201
   R18        1.81950   0.00004   0.00017   0.00003   0.00019   1.81970
   R19        1.82733   0.00003   0.00019  -0.00026  -0.00007   1.82725
   R20        1.82185   0.00007   0.00017  -0.00001   0.00016   1.82201
   R21        1.82086   0.00004   0.00014  -0.00004   0.00010   1.82096
    A1        1.87298   0.00008   0.00029  -0.00054  -0.00025   1.87274
    A2        1.93012  -0.00009   0.00004   0.00066   0.00070   1.93082
    A3        1.91529   0.00000   0.00029  -0.00017   0.00013   1.91541
    A4        1.91034   0.00000  -0.00020  -0.00009  -0.00029   1.91005
    A5        1.92974  -0.00003  -0.00038  -0.00007  -0.00044   1.92930
    A6        1.90534   0.00004  -0.00005   0.00019   0.00015   1.90549
    A7        2.12454   0.00008  -0.00004   0.00090   0.00085   2.12539
    A8        2.01273  -0.00001   0.00029  -0.00061  -0.00031   2.01242
    A9        2.14549  -0.00007  -0.00026  -0.00030  -0.00055   2.14494
   A10        2.12571   0.00011   0.00038  -0.00055  -0.00018   2.12552
   A11        2.09985  -0.00007  -0.00003  -0.00020  -0.00023   2.09963
   A12        2.05760  -0.00004  -0.00035   0.00075   0.00041   2.05801
   A13        1.93137   0.00002   0.00043  -0.00156  -0.00115   1.93022
   A14        1.95342   0.00000  -0.00004   0.00004   0.00000   1.95343
   A15        1.92124  -0.00002  -0.00005   0.00060   0.00056   1.92179
   A16        1.91950  -0.00002   0.00015   0.00045   0.00060   1.92009
   A17        1.90900  -0.00001   0.00014  -0.00024  -0.00010   1.90890
   A18        1.82636   0.00001  -0.00069   0.00086   0.00017   1.82653
   A19        1.96600   0.00002   0.00036   0.00071   0.00108   1.96708
   A20        1.93100  -0.00009  -0.00007  -0.00246  -0.00253   1.92847
   A21        1.89389  -0.00001  -0.00004   0.00054   0.00049   1.89438
   A22        1.86042   0.00008   0.00003   0.00054   0.00058   1.86100
   A23        1.90563  -0.00002  -0.00011   0.00066   0.00054   1.90618
   A24        1.90610   0.00001  -0.00018   0.00002  -0.00017   1.90594
   A25        1.94776   0.00015   0.00060  -0.00063  -0.00002   1.94774
   A26        1.90733  -0.00005   0.00002  -0.00031  -0.00029   1.90704
   A27        1.89863  -0.00001   0.00033   0.00046   0.00079   1.89942
   A28        1.87753  -0.00006  -0.00063   0.00012  -0.00051   1.87702
   A29        1.93711  -0.00006  -0.00023  -0.00021  -0.00043   1.93667
   A30        1.89458   0.00002  -0.00012   0.00058   0.00047   1.89504
   A31        1.91739  -0.00004  -0.00014  -0.00084  -0.00098   1.91641
   A32        1.89387   0.00003  -0.00017   0.00062   0.00045   1.89433
   A33        1.89410   0.00000   0.00000  -0.00044  -0.00044   1.89367
   A34        1.95868  -0.00003   0.00049  -0.00059  -0.00011   1.95857
   A35        1.87689   0.00006   0.00018  -0.00050  -0.00032   1.87658
    D1        2.42022  -0.00002   0.00038  -0.00744  -0.00706   2.41316
    D2       -0.75200  -0.00001   0.00024  -0.00783  -0.00759  -0.75958
    D3        0.33760  -0.00002   0.00042  -0.00738  -0.00696   0.33065
    D4       -2.83461  -0.00001   0.00028  -0.00777  -0.00748  -2.84209
    D5       -1.76537  -0.00002   0.00027  -0.00794  -0.00766  -1.77303
    D6        1.34561   0.00000   0.00013  -0.00832  -0.00819   1.33741
    D7        2.78902   0.00007  -0.00158   0.01423   0.01265   2.80167
    D8       -1.39891   0.00002  -0.00147   0.01465   0.01318  -1.38572
    D9        0.70064   0.00004  -0.00189   0.01479   0.01290   0.71354
   D10       -0.93883   0.00005   0.00025   0.00511   0.00535  -0.93347
   D11       -2.99874   0.00001  -0.00001   0.00543   0.00541  -2.99332
   D12        1.17007   0.00003   0.00060   0.00545   0.00604   1.17611
   D13        0.02858   0.00003  -0.00028  -0.00025  -0.00053   0.02805
   D14       -3.12164   0.00002   0.00006  -0.00059  -0.00053  -3.12217
   D15       -3.08004   0.00001  -0.00014   0.00017   0.00003  -3.08001
   D16        0.05293   0.00001   0.00020  -0.00017   0.00003   0.05296
   D17        0.34947   0.00001  -0.00040   0.00428   0.00388   0.35336
   D18       -2.82315   0.00002  -0.00054   0.00391   0.00337  -2.81977
   D19        0.16733   0.00002  -0.00053   0.00998   0.00945   0.17678
   D20        2.31496   0.00002  -0.00006   0.00945   0.00939   2.32436
   D21       -1.94490   0.00003  -0.00096   0.01090   0.00995  -1.93495
   D22       -2.96584   0.00003  -0.00087   0.01031   0.00945  -2.95639
   D23       -0.81821   0.00003  -0.00039   0.00978   0.00939  -0.80881
   D24        1.20512   0.00003  -0.00129   0.01124   0.00995   1.21507
   D25       -2.81293  -0.00005   0.00124  -0.01136  -0.01013  -2.82305
   D26       -0.73258   0.00001   0.00147  -0.01190  -0.01042  -0.74301
   D27        1.35826  -0.00003   0.00118  -0.01302  -0.01184   1.34642
   D28        1.30308  -0.00006   0.00088  -0.01064  -0.00975   1.29333
   D29       -2.89976   0.00000   0.00112  -0.01117  -0.01005  -2.90981
   D30       -0.80892  -0.00004   0.00082  -0.01229  -0.01147  -0.82038
   D31       -0.69346  -0.00006   0.00155  -0.01178  -0.01023  -0.70369
   D32        1.38689   0.00000   0.00178  -0.01232  -0.01053   1.37636
   D33       -2.80545  -0.00004   0.00149  -0.01344  -0.01195  -2.81740
   D34       -0.88632  -0.00003   0.00017  -0.00500  -0.00483  -0.89114
   D35        1.26802  -0.00001   0.00080  -0.00666  -0.00587   1.26216
   D36       -2.96651  -0.00002   0.00066  -0.00626  -0.00560  -2.97211
   D37       -3.06475  -0.00001   0.00094  -0.00581  -0.00487  -3.06962
   D38       -0.99039  -0.00002   0.00054  -0.00625  -0.00571  -0.99609
   D39        1.07538  -0.00003   0.00060  -0.00546  -0.00486   1.07052
   D40        1.09749   0.00003   0.00078  -0.00355  -0.00277   1.09472
   D41       -3.11133   0.00002   0.00038  -0.00399  -0.00360  -3.11494
   D42       -1.04557   0.00001   0.00044  -0.00320  -0.00275  -1.04832
   D43       -0.95947  -0.00002   0.00104  -0.00421  -0.00317  -0.96265
   D44        1.11489  -0.00003   0.00064  -0.00465  -0.00401   1.11088
   D45       -3.10253  -0.00004   0.00070  -0.00386  -0.00316  -3.10569
   D46        1.17287  -0.00004  -0.00145   0.00481   0.00335   1.17621
   D47       -2.96728  -0.00001  -0.00103   0.00455   0.00352  -2.96376
   D48       -0.91063   0.00001  -0.00124   0.00563   0.00439  -0.90624
   D49       -0.97825  -0.00001  -0.00116   0.00503   0.00387  -0.97438
   D50       -3.07027   0.00000  -0.00113   0.00571   0.00457  -3.06569
   D51        1.14267   0.00003  -0.00049   0.00505   0.00456   1.14723
         Item               Value     Threshold  Converged?
 Maximum Force            0.000920     0.000015     NO 
 RMS     Force            0.000158     0.000010     NO 
 Maximum Displacement     0.037485     0.000060     NO 
 RMS     Displacement     0.008760     0.000040     NO 
 Predicted change in Energy=-7.520381D-06
 GradGradGradGradGradGradGradGradGradGradGradGradGradGradGradGradGradGrad

                          Input orientation:                          
 ---------------------------------------------------------------------
 Center     Atomic      Atomic             Coordinates (Angstroms)
 Number     Number       Type             X           Y           Z
 ---------------------------------------------------------------------
      1          6           0       -0.249984    0.891002   -0.021085
      2          6           0       -0.869768    1.436838   -1.287726
      3          6           0       -0.133788    1.987219   -2.244797
      4          6           0        1.360798    2.069250   -2.143805
      5          6           0        1.866710    1.235293   -0.967029
      6          6           0        3.267722    1.613233   -0.543672
      7          8           0       -1.068470    1.270048    1.036095
      8          8           0       -2.211299    1.288320   -1.385790
      9          8           0        1.996965    1.653178   -3.343486
     10          8           0        1.034323    1.421995    0.169243
     11          8           0        3.746874    0.767995    0.481277
     12          1           0       -0.182226   -0.205497   -0.082988
     13          1           0       -0.605094    2.387342   -3.135540
     14          1           0        1.672666    3.110640   -2.011671
     15          1           0        1.849996    0.173691   -1.257561
     16          1           0       -0.896388    0.708775    1.799389
     17          1           0       -2.570617    1.147493   -0.499205
     18          1           0        1.640735    0.793689   -3.596460
     19          1           0        3.114684    0.805611    1.207547
     20          1           0        3.940432    1.511224   -1.394964
     21          1           0        3.269288    2.661079   -0.220805
 ---------------------------------------------------------------------
                    Distance matrix (angstroms):
                    1          2          3          4          5
     1  C    0.000000
     2  C    1.512101   0.000000
     3  C    2.481952   1.326865   0.000000
     4  C    2.913559   2.471485   1.500238   0.000000
     5  C    2.343872   2.762567   2.489995   1.528474   0.000000
     6  C    3.628907   4.207559   3.821513   2.530758   1.511590
     7  O    1.389686   2.338258   3.486004   4.080666   3.553730
     8  O    2.422197   1.353285   2.354232   3.734209   4.099796
     9  O    4.082651   3.534276   2.420497   1.420232   2.416432
    10  O    1.402719   2.397612   2.740721   2.423987   1.420859
    11  O    4.030182   4.988998   4.896685   3.778581   2.418878
    12  H    1.100333   2.149738   3.079573   3.435457   2.656227
    13  H    3.473465   2.094737   1.084274   2.224737   3.484175
    14  H    3.547648   3.128846   2.140023   1.095087   2.155426
    15  H    2.540339   2.998927   2.863375   2.148927   1.100766
    16  H    1.940405   3.171918   4.309457   4.742843   3.945250
    17  H    2.383217   1.896938   3.112936   4.360088   4.462784
    18  H    4.045688   3.470809   2.529909   1.953363   2.675815
    19  H    3.582990   4.743490   4.885433   3.988040   2.543786
    20  H    4.453291   4.811969   4.189039   2.743477   2.135319
    21  H    3.944405   4.446220   4.016411   2.773179   2.134699
                    6          7          8          9         10
     6  C    0.000000
     7  O    4.627743   0.000000
     8  O    5.552874   2.678044   0.000000
     9  O    3.074960   5.359516   4.655661   0.000000
    10  O    2.352210   2.279531   3.601397   3.649574   0.000000
    11  O    1.412280   4.873132   6.265501   4.298203   2.807670
    12  H    3.927105   2.053049   2.836533   4.339861   2.047521
    13  H    4.723953   4.343455   2.617129   2.711632   3.813289
    14  H    2.634664   4.493383   4.335639   2.000774   2.831147
    15  H    2.142864   3.870439   4.213426   2.561556   2.063820
    16  H    4.862900   0.962942   3.494314   5.975998   2.625586
    17  H    5.857055   2.151420   0.966942   5.404485   3.676651
    18  H    3.555032   5.387697   4.468768   0.964167   3.865620
    19  H    1.934540   4.212348   5.943442   4.762308   2.405392
    20  H    1.089790   5.572909   6.155774   2.755713   3.301541
    21  H    1.096460   4.725560   5.768751   3.519347   2.585060
                   11         12         13         14         15
    11  O    0.000000
    12  H    4.087041   0.000000
    13  H    5.885854   4.027369   0.000000
    14  H    4.000639   4.261128   2.640915   0.000000
    15  H    2.641004   2.377673   3.801910   3.037400   0.000000
    16  H    4.827091   2.211168   5.220724   5.185863   4.144138
    17  H    6.404377   2.776370   3.514366   4.913955   4.589685
    18  H    4.589599   4.082406   2.792119   2.807283   2.428711
    19  H    0.963612   3.682042   5.933046   4.213781   2.841746
    20  H    2.027347   4.654537   4.945603   2.842749   2.485517
    21  H    2.074795   4.488786   4.856073   2.441006   3.045710
                   16         17         18         19         20
    16  H    0.000000
    17  H    2.877334   0.000000
    18  H    5.963169   5.239623   0.000000
    19  H    4.055657   5.945800   5.025053   0.000000
    20  H    5.851721   6.582434   3.263440   2.820074   0.000000
    21  H    5.024493   6.039283   4.187406   2.346669   1.775175
                   21
    21  H    0.000000
 Symmetry turned off by external request.
 Stoichiometry    C6H10O5
 Framework group  C1[X(C6H10O5)]
 Deg. of freedom    57
 Full point group                 C1      NOp   1
 Rotational constants (GHZ):      1.5775990      0.8818940      0.5927632
 Standard basis: 6-311+G(2df,p) (5D, 7F)
 Integral buffers will be    131072 words long.
 Raffenetti 2 integral format.
 Two-electron integral symmetry is turned off.
   434 basis functions,   652 primitive gaussians,   489 cartesian basis functions
    43 alpha electrons       43 beta electrons
       nuclear repulsion energy       682.3899099250 Hartrees.
 NAtoms=   21 NActive=   21 NUniq=   21 SFac= 1.00D+00 NAtFMM=   60 NAOKFM=F Big=F
 ------------------------------------------------------------------------------
 Polarizable Continuum Model (PCM)
 =================================
 Model                : PCM.
 Atomic radii         : UFF (Universal Force Field).
 Polarization charges : Total charges.
 Charge compensation  : None.
 Solution method      : Matrix inversion.
 Cavity type          : Scaled VdW (van der Waals Surface) (Alpha=1.100).
 Cavity algorithm     : GePol (No added spheres)
                        Default sphere list used, NSphG=   21.
                        Lebedev-Laikov grids with approx.  5.0 points / Ang**2.
                        Smoothing algorithm: Karplus/York (Gamma=1.0000).
                        Polarization charges: spherical gaussians, with
                                              point-specific exponents (IZeta= 3).
                        Self-potential: point-specific (ISelfS= 7).
                        Self-field    : sphere-specific E.n sum rule (ISelfD= 2).
 1st derivatives      : Analytical E(r).r(x)/FMM algorithm (CHGder, D1EAlg=3).
                        Cavity 1st derivative terms included.
 Solvent              : Ethanol, Eps=  24.852000 Eps(inf)=   1.852593
 ------------------------------------------------------------------------------
 One-electron integrals computed using PRISM.
 NBasis=   434 RedAO= T  NBF=   434
 NBsUse=   434 1.00D-06 NBFU=   434
 Initial guess read from the read-write file.
 B after Tr=     0.000000    0.000000    0.000000
         Rot=    1.000000    0.000000    0.000000    0.000000 Ang=   0.00 deg.
 Harris functional with IExCor= 1009 diagonalized for initial guess.
 ExpMin= 4.38D-02 ExpMax= 8.59D+03 ExpMxC= 1.30D+03 IAcc=3 IRadAn=         5 AccDes= 0.00D+00
 HarFok:  IExCor= 1009 AccDes= 0.00D+00 IRadAn=         5 IDoV= 1
 ScaDFX=  1.000000  1.000000  1.000000  1.000000
[...]
 .01081739,0.00906317,0.00953489,-0.00181437,-0.07622713,-0.02659237,-0
 .00743682,0.00303447,0.01281427,0.00676132,0.01143444,0.00568537,0.002
 45285,0.00100631,0.00074603,0.00031763,0.00017513,0.00582792,0.0851780
 7,0.16479970,-0.02667716,-0.01725879,-0.09929746,-0.02967589,-0.014231
 98,-0.00008042,0.00246868,-0.00203454,0.00392267,0.02696542,-0.0103399
 3,-0.03027938,0.04261228,-0.03195158,-0.18043275,0.00391236,0.00160237
 ,0.00052757,0.04856787,0.01009363,-0.00343494,-0.00695081,0.00144576,-
 0.00503428,-0.00104336,0.00464184,-0.01440910,-0.07265457,0.06668168,0
 .33657106,0.00271572,0.00118270,-0.00148538,0.00078432,0.00000517,-0.0
 0002648,0.00003243,0.00152062,-0.00253349,-0.00865635,-0.00309360,0.00
 317983,-0.01619094,0.02836502,-0.03423083,-0.10237180,0.03507030,-0.01
 034665,-0.00060777,0.00002087,0.00073801,-0.00138087,-0.00019459,0.000
 01703,0.00109142,-0.00052608,-0.00143678,-0.00022799,0.00068557,-0.002
 06356,0.35840414,-0.00053581,-0.00006011,0.00007180,-0.00046332,-0.000
 13495,0.00015015,-0.00000153,-0.00000218,0.00022964,-0.00038839,0.0016
 2982,-0.00122984,0.00390402,0.00137403,0.00457580,0.05450265,-0.137421
 74,0.06695170,0.00026045,0.00003719,-0.00023755,0.00054369,0.00010896,
 -0.00010612,0.00008253,0.00027583,0.00096731,-0.00063561,0.00102263,-0
 .00030992,-0.09916381,0.17789584,0.00140865,0.00008070,0.00026845,0.00
 140038,0.00030865,-0.00018953,0.00010068,0.00143384,-0.00194621,-0.004
 98082,-0.00276212,0.00383111,-0.01235266,0.01886259,-0.02463755,-0.047
 42001,0.08637346,-0.16751925,-0.00076456,-0.00002390,0.00066402,-0.001
 34552,-0.00029431,0.00024288,-0.00040175,-0.00039653,-0.00136056,0.000
 92009,-0.00103695,0.00202313,-0.18768592,-0.11426079,0.51446268,-0.048
 35704,0.02286613,-0.00222148,0.00277452,0.01305042,-0.00059851,-0.0008
 7919,0.00002907,-0.00132220,-0.00085058,0.00067887,0.00029929,0.003902
 28,-0.00321719,-0.00557596,-0.00027645,0.00005776,0.00028152,-0.005842
 32,0.02538044,0.01430099,0.00122646,-0.00124204,0.00017689,0.00026419,
 -0.00000513,0.00044646,-0.01835760,-0.04154014,-0.00098086,-0.00006653
 ,0.00006721,-0.00004466,0.06616507,0.02153442,-0.28787083,-0.00669805,
 0.00124089,-0.01204659,0.00360029,0.00116227,0.00042357,0.00039766,0.0
 0004538,-0.00001808,-0.00024261,0.00130056,0.00011030,-0.00146020,-0.0
 0001680,0.00047798,0.00047450,0.00630654,-0.00626328,-0.00742288,0.000
 95667,0.00033553,0.00040574,-0.00017288,0.00000547,0.00040757,-0.01473
 970,-0.01502575,-0.00233508,-0.00021613,0.00003022,-0.00011378,-0.0171
 5329,0.31894641,-0.00374615,0.00636728,-0.05384427,-0.00267783,0.02846
 047,0.00085643,-0.00118088,-0.00001747,-0.00196776,-0.00135290,0.00166
 964,0.00026362,0.00044870,0.00060642,0.00016420,-0.00005666,-0.0000542
 8,0.00024548,0.01494289,-0.03392661,-0.01197516,0.00042384,-0.00165032
 ,-0.00017626,0.00068705,-0.00025969,-0.00009128,-0.00433439,-0.0095823
 2,0.00393935,0.00003687,0.00001273,0.00004456,-0.00357295,0.01179457,0
 .06173481,-0.00316171,-0.00226810,0.00053059,0.01114675,-0.00778473,0.
 01608399,-0.10715080,0.04463919,-0.10404967,-0.00981062,0.01216965,-0.
 02526459,-0.00633335,-0.00238767,0.00222469,0.00100985,0.00122975,-0.0
 0071559,0.00020290,-0.00022914,0.00105609,0.00137704,0.00114251,-0.000
 82066,0.00377686,-0.00059969,0.00047187,0.00127446,0.00026201,-0.00022
 346,-0.00100923,0.00018887,-0.00095373,0.00033073,-0.00015801,0.000416
 74,0.10805004,-0.00438578,0.00912607,0.00166294,0.00711202,0.00119411,
 0.01314510,0.04189520,-0.07925432,0.09643447,0.00025294,0.00303811,-0.
 00347639,0.00016700,0.00106959,0.00052128,0.00006316,0.00010076,0.0001
 0560,0.00047217,-0.00136976,0.00283174,0.00039978,-0.00511404,-0.00345
 592,-0.00084349,-0.00009923,0.00044686,0.00062831,-0.00030349,-0.00008
 953,-0.00007058,-0.00003758,-0.00005948,-0.00061656,0.00027857,-0.0014
 0611,-0.04669207,0.07150859,0.00251989,0.00494529,0.00173135,-0.012182
 88,0.01038713,-0.01549414,-0.10143030,0.09592347,-0.24276825,0.0024427
 8,-0.00001653,-0.00037526,0.00083852,-0.00062585,0.00077579,0.00020794
 ,0.00006507,0.00018325,0.00038660,-0.00003327,-0.00038273,-0.00136367,
 -0.00379965,0.00038410,-0.00106642,0.00041998,0.00204452,-0.00001173,-
 0.00055541,0.00039272,-0.00008945,0.00000736,-0.00005597,-0.00062880,0
 .00046472,-0.00105891,0.11067029,-0.10660280,0.25466208,-0.00109803,-0
 .00153315,-0.00186698,0.00198568,0.00017623,-0.00387083,-0.01524555,-0
 .03103929,0.00122613,-0.07006147,-0.07701566,-0.01312385,0.00339469,0.
 01185674,0.00071652,0.00023393,0.00155380,-0.00055067,0.00007588,0.000
 11437,0.00056239,-0.00462208,0.00026767,0.00209819,0.00492537,0.017288
 05,0.00729182,0.00088685,-0.00013380,-0.00019322,-0.00007768,-0.000417
 13,0.00026092,0.00008443,-0.00005857,0.00072860,0.00054488,0.00096816,
 -0.00024370,0.08033326,0.00082090,0.00039621,0.00021366,0.00001430,0.0
 0087386,-0.00132493,-0.00403552,0.00169675,0.00127349,-0.06787160,-0.2
 7812130,-0.02399711,-0.00318572,-0.01909636,-0.00082543,-0.00128071,0.
 00011009,-0.00098149,-0.00018240,0.00003066,0.00010725,0.00005167,-0.0
 0043426,0.00005622,-0.00048559,-0.01216682,-0.00931815,-0.00087422,0.0
 0040952,0.00143431,-0.00001876,0.00058339,0.00002517,0.00007231,0.0001
 1109,-0.00015621,-0.00047046,-0.00000935,0.00000141,0.07394259,0.30532
 915,-0.00005177,0.00052001,0.00009852,-0.00080726,-0.00016218,0.000714
 22,0.00005786,-0.00168587,0.00164746,-0.00961279,-0.01531100,-0.048839
 31,0.00520930,0.02540864,0.00343243,0.00067595,0.00127975,0.00050699,0
 .00011046,-0.00015546,-0.00012929,0.00070873,0.00014054,0.00010014,-0.
 00421388,-0.03833464,-0.01661816,-0.00047878,-0.00183277,0.00121019,-0
 .00002522,-0.00058150,0.00019107,0.00003036,-0.00017749,-0.00015708,0.
 00022744,0.00007575,0.00007063,0.00643026,0.03152009,0.06550293,0.0023
 7972,0.00463325,0.00142259,-0.00041277,-0.00018001,0.00033372,0.001006
 46,0.00015739,0.00008402,0.00132149,0.01325114,0.00105778,-0.05087840,
 -0.00923895,-0.00548136,-0.00225972,-0.03210248,-0.00867214,-0.0004885
 7,-0.00074052,0.00000438,-0.00000400,0.00003653,-0.00011838,-0.0002243
 3,-0.00119917,0.00130443,-0.00677249,0.02027475,0.01523115,0.00276417,
 0.00146206,0.00207906,0.00017173,-0.00072969,-0.00007451,-0.00001710,-
 0.00020294,-0.00004570,-0.00047738,0.00080323,-0.00132597,0.05783982,-
 0.00189677,0.00161324,0.00022841,0.00023248,-0.00023363,-0.00018194,-0
 .00078079,0.00066081,0.00013273,-0.00149587,-0.02105925,-0.00442771,-0
 .00848642,-0.27780642,-0.05487024,-0.00048712,-0.00988092,-0.00060058,
 0.00022379,0.00014180,-0.00006229,0.00030019,0.00003101,0.00002051,-0.
 00035747,0.00342222,-0.00071142,0.00574076,-0.00071140,-0.00861813,0.0
 0061440,0.00218149,-0.00012684,0.00146920,-0.00000485,-0.00027159,0.00
 016420,0.00019936,0.00015612,0.00159817,-0.00099860,0.00233964,0.00496
 684,0.30207847,-0.00497115,-0.00299495,-0.00022480,0.00025471,0.000423
 92,-0.00004785,0.00108128,-0.00014665,0.00023210,0.00059272,0.02468090
 ,0.00313377,-0.00380372,-0.05203197,-0.06088072,-0.00173988,-0.0082911
 5,-0.00145042,0.00080912,0.00066155,-0.00027969,0.00010096,-0.00011486
 ,0.00031895,-0.00031133,0.00046200,0.00304647,0.01318108,-0.03036598,-
 0.02000260,0.00104067,-0.00010574,0.00061519,0.00052110,0.00082102,-0.
 00003696,-0.00005589,-0.00036525,-0.00011428,-0.00143008,0.00221776,-0
 .00316959,-0.00364625,0.06563491,0.07930356,0.00210641,-0.01563576,0.0
 2692436,-0.00297156,0.00143769,0.00113128,0.00046751,-0.00005070,0.000
 08618,0.00015002,-0.00000693,-0.00003131,-0.00089369,0.00038734,0.0001
 0560,-0.00006035,-0.00001212,0.00004087,-0.04144390,0.08087772,-0.0800
 2764,0.00118123,-0.00030054,-0.00157598,0.00001686,0.00001396,-0.00018
 174,-0.00009963,0.00010104,0.00019802,0.00007411,0.00000510,0.00000249
 ,-0.00023254,0.00045895,-0.00015156,-0.00002632,-0.00018447,-0.0000049
 9,0.00000970,0.00001416,-0.00001129,0.00002351,-0.00006507,-0.00005727
 ,0.04067186,-0.00220935,0.00619205,-0.01579563,0.00271820,0.00021563,-
 0.00257395,-0.00048611,0.00067153,-0.00103442,-0.00018860,-0.00009949,
 0.00009864,-0.00024545,0.00027654,0.00040611,-0.00000701,-0.00002866,-
 0.00018861,0.06708159,-0.20518433,0.25527823,-0.00008925,0.00012550,-0
 .00060959,0.00012299,-0.00001243,-0.00020712,0.00077065,-0.00046394,0.
 00008308,0.00008559,-0.00004580,0.00005692,-0.00031445,0.00097047,-0.0
 0170359,0.00015879,0.00023958,-0.00021085,0.00004958,0.00002045,-0.000
 00647,0.00002674,-0.00006797,-0.00007455,-0.06782371,0.19735423,-0.004
 25354,0.01956786,-0.03082462,0.00416984,-0.00212926,-0.00418460,-0.000
 90616,0.00001890,-0.00051338,-0.00012381,-0.00018957,-0.00010637,0.000
 28492,-0.00022948,-0.00094906,0.00003168,-0.00001595,0.00033648,-0.048
 05665,0.21611794,-0.32827002,0.00068432,0.00000779,0.00110802,-0.00000
 960,-0.00002881,0.00026417,-0.00195933,-0.00007546,0.00221914,-0.00012
 244,0.00002932,-0.00010108,-0.00171379,0.00009672,0.00236639,0.0001373
 3,0.00046958,0.00012070,-0.00003855,-0.00002400,0.00002470,0.00001008,
 0.00002639,0.00007217,0.05249588,-0.23376045,0.35911699,-0.00622117,0.
 00069611,0.00133447,-0.02932575,-0.01041956,0.04503528,-0.00523689,0.0
 0107324,-0.00327455,-0.00024477,-0.00177712,0.00051018,-0.00062769,0.0
 0025797,0.00101318,-0.00003127,-0.00002263,-0.00023605,0.00188959,-0.0
 0044568,0.00173021,-0.09692658,-0.02301146,0.12282962,0.00016500,0.000
 07829,-0.00022185,0.00300984,0.00028754,0.00052622,0.00013112,-0.00001
 836,0.00006068,0.00000345,-0.00001428,-0.00024229,0.00010663,0.0005836
 6,0.00011700,-0.00029219,0.00003144,-0.00006578,0.00002266,-0.00003772
 ,-0.00011301,0.00112299,0.00039006,-0.00060823,0.13248802,0.00182205,0
 .00097324,0.00002431,-0.00681333,-0.00545189,0.00405881,-0.00060747,0.
 00152327,-0.00110604,-0.00043650,0.00202410,0.00118562,0.00013466,0.00
 019214,-0.00049261,-0.00006681,0.00003273,0.00002841,-0.00087710,-0.00
 160303,-0.00009659,-0.02653223,-0.01521296,0.06572192,-0.00023158,0.00
 001339,0.00023336,-0.00051242,-0.00044122,0.00008307,0.00003329,-0.000
 05070,0.00006546,0.00026782,-0.00034439,0.00005774,0.00022551,-0.00041
 313,-0.00036747,0.00078151,-0.00005640,-0.00009694,-0.00002173,-0.0000
 1896,0.00001437,0.00076467,-0.00023755,0.00015607,0.03227043,0.0191172
 0,-0.00677448,-0.00012860,0.00328224,0.00538999,0.00035380,0.00390191,
 -0.00419150,-0.00097275,0.00136974,0.00076268,0.00002126,0.00048451,0.
 00014526,-0.00020916,0.00052824,0.00016454,0.00001185,-0.00012587,0.00
 088418,-0.00016103,-0.00063926,0.17095950,0.07056049,-0.44152573,-0.00
 096518,0.00012439,0.00032047,0.00082381,0.00011161,-0.00161141,-0.0000
 9736,0.00004919,-0.00011757,0.00043660,-0.00005552,-0.00024506,-0.0000
 6711,-0.00027875,-0.00008578,-0.00035186,-0.00005009,0.00006298,0.0000
 2031,-0.00000876,-0.00005169,0.00106973,0.00022273,-0.00067695,-0.1684
 2002,-0.06950105,0.43518695,0.00084969,0.00032589,0.00086404,-0.002109
 20,-0.00122162,0.00081441,0.00209684,0.00139451,-0.00120710,0.00480180
 ,0.02088813,0.00973041,-0.00017863,-0.00027474,-0.00073062,-0.00033686
 ,-0.00002190,-0.00011109,-0.00012134,0.00000894,-0.00028124,0.00177898
 ,0.00047537,-0.00030747,-0.09576748,-0.19355187,-0.04098266,-0.0007408
 9,0.00000067,0.00066413,0.00012842,-0.00003225,0.00011155,-0.00010119,
 0.00003739,-0.00024686,-0.00029286,0.00042034,-0.00011270,-0.00074024,
 0.00191237,0.00356912,0.00014601,0.00001192,-0.00024817,0.00000659,-0.
 00001927,-0.00000850,-0.00000130,-0.00020703,0.00018733,0.09060985,0.0
 0005464,0.00032568,-0.00035614,0.00055630,0.00041853,0.00017370,0.0000
 2919,0.00130525,0.00201341,-0.00444816,-0.01393021,-0.00302985,-0.0010
 0238,0.00299030,0.00047872,0.00007907,-0.00012022,-0.00000770,-0.00008
 844,-0.00005699,0.00024937,-0.00096447,-0.00061472,0.00002014,-0.16627
 340,-0.41294278,-0.12843024,0.00000240,-0.00058906,0.00099893,0.000107
 44,-0.00007965,0.00017191,0.00001099,-0.00007672,0.00007890,0.00045709
 ,-0.00016854,-0.00013911,0.00183663,0.00100014,-0.00247558,-0.00020547
 ,0.,-0.00028264,0.00001031,0.00002994,-0.00000697,0.00003991,-0.000043
 57,-0.00009646,0.16990481,0.42258563,0.00073164,0.00040309,-0.00052031
 ,0.00106188,0.00073058,-0.00031044,-0.00030936,0.00057478,0.00238865,-
 0.01203387,-0.03648562,-0.01509912,-0.00012217,-0.00285153,-0.00065456
 ,-0.00066258,0.00011187,-0.00023084,-0.00029384,-0.00000871,0.00037115
 ,-0.00105429,-0.00046293,-0.00003524,-0.01791323,-0.09424629,-0.058493
 86,-0.00052698,0.00066905,0.00139744,0.00026309,-0.00003046,0.00035905
 ,0.00001657,-0.00003880,-0.00000195,0.00012092,0.00006600,-0.00007322,
 0.00235204,-0.00068540,-0.00414511,-0.00017609,0.00138303,-0.00079582,
 0.00001902,0.00003822,-0.00004799,0.00007510,0.00003807,-0.00010231,0.
 02846170,0.13061701,0.07611916,-0.00228864,-0.00122249,0.00099204,0.00
 030245,0.00035096,-0.00031196,-0.00000450,-0.00001401,0.00000891,-0.00
 024681,0.00021067,-0.00009308,0.00117761,0.00065458,-0.00418491,0.0095
 0365,0.00142416,-0.01480026,0.00056192,-0.00002810,-0.00044388,0.00036
 638,-0.00007699,0.00029718,-0.00021855,-0.00003372,0.00045332,0.001751
 53,0.00043364,0.00117583,-0.24765350,0.02405573,0.26587643,0.00017482,
 0.00017836,0.00004774,-0.00001983,-0.00001814,0.00003927,0.00001312,-0
 .00010709,0.00008213,-0.00012996,-0.00002047,0.00014977,-0.00010625,-0
 .00007722,0.00011344,-0.00012930,0.00001750,-0.00001369,-0.00000461,-0
 .00002167,-0.00005830,0.23752559,0.00038246,0.00023228,-0.00057890,-0.
 00012200,-0.00011815,0.00009254,0.00000947,-0.00004557,-0.00002635,-0.
 00008528,-0.00000149,-0.00009254,0.00038242,0.00116252,0.00031322,-0.0
 1674740,-0.00199843,0.02562197,-0.00003446,-0.00002244,0.00007592,-0.0
 0007366,0.00002188,-0.00007414,0.00006843,-0.00001234,-0.00005578,-0.0
 0035831,-0.00090109,0.00001267,0.04365767,-0.02274689,-0.02224353,-0.0
 0011816,-0.00008175,-0.00003810,0.00000966,0.00000271,-0.00000161,0.00
 000629,-0.00006074,0.00004449,-0.00009237,-0.00013204,-0.00022685,0.00
 000440,0.00003941,-0.00000966,0.00002375,0.00000653,-0.00000278,-0.000
 00378,0.00000219,-0.00002295,-0.02767236,0.02649124,-0.00183757,-0.000
 91798,0.00065172,-0.00002636,0.00016486,-0.00012200,-0.00000528,-0.000
 21639,0.00039362,0.00096111,0.00035208,-0.00078102,0.00111554,-0.00113
 962,-0.00129100,0.01993406,0.00122642,-0.03023438,0.00047500,-0.000030
 15,-0.00044167,0.00049962,-0.00000985,0.00013081,-0.00023386,0.0000866
 1,0.00050376,0.00166126,-0.00006495,0.00116087,0.22633260,0.00298741,-
 0.30016084,0.00008878,0.00013915,0.00001935,0.00016209,0.00000755,0.00
 004753,0.00000141,-0.00005121,0.00004270,-0.00029870,-0.00002296,-0.00
 017389,-0.00003133,-0.00004258,0.00009676,-0.00008887,0.00000169,0.000
 02282,-0.00003659,-0.00002047,-0.00011376,-0.24615211,-0.00573833,0.33
 042558,0.00157514,0.00115588,0.00103799,-0.00011818,-0.00024165,0.0002
 7122,0.00005941,0.00003074,-0.00006637,-0.00053791,0.00039416,0.001048
 30,-0.01436333,0.00644833,0.02421175,-0.16121275,0.01701602,0.13399154
 ,-0.00117878,-0.00008948,0.00060891,-0.00004960,0.00011421,-0.00020790
 ,0.00127908,-0.00030297,-0.00015988,-0.00872589,-0.00333658,-0.0015565
 1,0.01121124,-0.00021332,-0.01396653,-0.00018646,-0.00017943,-0.000105
 81,0.00003990,0.00002765,-0.00003990,0.00003853,0.00014115,-0.00020726
 ,0.00119922,-0.00043433,-0.00010619,0.00000885,0.00006835,-0.00011563,
 0.00009825,-0.00002236,0.00005337,-0.00003392,-0.00010749,-0.00012590,
 -0.00024235,0.00171501,-0.00294544,0.16928684,-0.00007598,0.00063121,0
 .00031405,-0.00003681,-0.00001081,-0.00003102,-0.00006308,-0.00014170,
 0.00011782,0.00038097,0.00035254,-0.00019916,-0.00718738,0.00028740,0.
 00694499,0.02364374,-0.05510369,-0.03141475,-0.00022455,-0.00007045,0.
 00005548,0.00000209,0.00000443,-0.00000469,0.00010223,-0.00004800,-0.0
 0003165,-0.00155280,0.00026096,-0.00040595,-0.01412651,0.00045939,0.02
 413707,0.00010823,0.00000770,0.00001595,0.00003581,0.00001188,-0.00001
 379,-0.00011716,-0.00009870,-0.00016279,0.00056674,0.00022571,0.000407
 86,-0.00000210,0.00000433,-0.00000838,0.00000250,0.00000244,0.00000561
 ,-0.00006343,-0.00000800,-0.00001196,0.00111165,-0.00212853,0.00384033
 ,-0.02178266,0.05679832,0.00009920,0.00027566,0.00058431,-0.00004290,0
 .00000015,0.00001907,0.00001216,-0.00007570,0.00016444,0.00091237,0.00
 014342,0.00008511,-0.00266209,0.00124609,0.00805630,0.12800641,-0.0243
 2766,-0.20459429,-0.00044394,-0.00004878,0.00019870,0.00003891,0.00001
 387,-0.00005476,-0.00077532,-0.00006792,-0.00080675,-0.00390794,-0.000
 85632,0.00032840,0.01418025,0.00470216,-0.02831674,-0.00005738,-0.0000
 4731,-0.00002387,0.00006713,-0.00002623,0.00000246,0.00028748,0.000095
 18,0.00007554,0.00057313,-0.00004667,0.00028976,-0.00000592,0.00001589
 ,-0.00003244,0.00002291,-0.00000549,0.00002296,-0.00013320,-0.00000796
 ,-0.00011760,-0.00301584,0.00267437,-0.00190659,-0.13983212,0.01842651
 ,0.23196241,-0.00003073,-0.00018064,-0.00015764,0.00020375,0.00009649,
 -0.00005903,-0.00012768,0.00033736,0.00010577,0.00113796,-0.00166716,0
 .00140548,-0.00421657,-0.03154287,-0.01323784,-0.05171676,-0.00288951,
 0.00228354,0.00002496,0.00011202,0.00003269,-0.00010067,-0.00003321,0.
 00003586,0.00021896,0.00011197,-0.00000375,0.00350025,0.00101036,-0.00
 030255,0.00090556,0.01679724,-0.00230479,0.00005223,0.00021735,0.00001
 038,-0.00003823,0.00002364,-0.00000206,0.00008831,0.00070796,-0.000301
 58,-0.00521008,-0.00125992,-0.00124848,-0.00000539,-0.00001212,-0.0000
 1124,-0.00000063,0.00001111,-0.00001612,0.00001034,0.00002270,0.000174
 65,-0.00033276,-0.00095179,0.00042465,0.00185270,0.01927849,0.00667670
 ,0.05378449,0.00023754,0.00036005,0.00016872,0.00013829,0.00001313,-0.
 00001691,0.00005673,0.00040762,-0.00024009,-0.00005511,0.00035011,0.00
 057468,-0.00083633,-0.01055796,-0.00588972,-0.00469007,-0.26968498,-0.
 08054415,-0.00012708,-0.00000690,0.00003215,-0.00000054,-0.00004393,-0
 .00002236,-0.00014770,0.00018985,0.00004794,0.00059999,0.00077613,0.00
 049809,0.00606145,-0.02501919,0.00980245,0.00014850,0.00003492,0.00000
 259,-0.00009315,0.00000010,-0.00000418,-0.00012501,0.00048125,-0.00034
 623,-0.00146536,0.00035994,-0.00032369,0.00000608,0.00000050,-0.000012
 57,0.00001191,-0.00001123,0.00000402,0.00001554,-0.00002719,0.00021296
 ,0.00085502,0.00029070,-0.00055159,-0.00040122,-0.00143643,-0.00208326
 ,-0.00018945,0.30352351,0.00024234,0.00030548,0.00004387,0.00007138,0.
 00002925,0.00003561,-0.00005615,0.00021780,0.00000202,0.00053819,-0.00
 157067,0.00046727,0.00094005,-0.00995457,-0.00342447,0.00241033,-0.084
 05033,-0.07992181,-0.00015501,-0.00003173,0.00006054,-0.00004185,-0.00
 001630,-0.00003065,-0.00033422,0.00031287,-0.00050782,-0.00007287,0.00
 110830,0.00088979,-0.00564482,0.03612737,0.00170317,0.00011804,-0.0000
 1022,-0.00005563,-0.00001846,-0.00000640,-0.00000661,-0.00028602,0.000
 46948,-0.00062195,-0.00228156,0.00002739,0.00021632,0.00000559,0.00000
 801,-0.00001901,0.00001580,-0.00000271,-0.00000119,0.00000352,0.000051
 05,0.00010666,-0.00016202,0.00027634,0.00172963,-0.00178762,-0.0219815
 3,-0.00593643,0.00649536,0.07869115,0.08527069\\0.00000029,0.00000078,
 0.00000171,-0.00000028,-0.00000011,0.00000159,-0.00000107,-0.00000080,
 0.00000030,-0.00000104,-0.00000111,-0.00000126,0.00000004,-0.00000036,
 -0.00000040,0.00000033,0.00000008,-0.00000234,0.00000195,0.00000195,0.
 00000175,-0.00000065,0.,0.00000286,-0.00000216,-0.00000222,-0.00000110
 ,0.00000146,0.00000118,-0.00000012,0.00000133,0.00000088,-0.00000184,0
 .00000054,0.00000084,0.00000237,-0.00000185,-0.00000170,0.00000047,-0.
 00000079,-0.00000106,-0.00000216,-0.00000046,-0.00000039,0.00000019,0.
 00000235,0.00000256,0.00000223,0.00000035,0.00000080,0.00000330,-0.000
 00249,-0.00000241,-0.00000016,0.00000167,0.00000146,-0.00000149,-0.000
 00034,-0.00000076,-0.00000274,0.00000083,0.00000037,-0.00000317\\\@


 DEPRESSION IS WAITING FOR YOUR SHIP TO COME IN,
 AND FINDING OUT IT'S THE TITANIC.
 Job cpu time:  0 days  9 hours 16 minutes  2.5 seconds.
 File lengths (MBytes):  RWF=    378 Int=      0 D2E=      0 Chk=     19 Scr=      1
 Normal termination of Gaussian 09 at Wed May 15 00:41:04 2013.
