 Entering Gaussian System, Link 0=g09
 Initial command:
 /opt/software/gaussian/g09/l1.exe /scratch/Gau-13953.inp -scrdir=/scratch/
 Entering Link 1 = /opt/software/gaussian/g09/l1.exe PID=     13955.
  
 Copyright (c) 1988,1990,1992,1993,1995,1998,2003,2009,2010,
            Gaussian, Inc.  All Rights Reserved.
  
 This is part of the Gaussian(R) 09 program.  It is based on
 the Gaussian(R) 03 system (copyright 2003, Gaussian, Inc.),
 the Gaussian(R) 98 system (copyright 1998, Gaussian, Inc.),
 the Gaussian(R) 94 system (copyright 1995, Gaussian, Inc.),
 the Gaussian 92(TM) system (copyright 1992, Gaussian, Inc.),
 the Gaussian 90(TM) system (copyright 1990, Gaussian, Inc.),
 the Gaussian 88(TM) system (copyright 1988, Gaussian, Inc.),
 the Gaussian 86(TM) system (copyright 1986, Carnegie Mellon
 University), and the Gaussian 82(TM) system (copyright 1983,
 Carnegie Mellon University). Gaussian is a federally registered
 trademark of Gaussian, Inc.
  
 This software contains proprietary and confidential information,
 including trade secrets, belonging to Gaussian, Inc.
  
 This software is provided under written license and may be
 used, copied, transmitted, or stored only in accord with that
 written license.
  
 The following legend is applicable only to US Government
 contracts under FAR:
  
                    RESTRICTED RIGHTS LEGEND
  
 Use, reproduction and disclosure by the US Government is
 subject to restrictions as set forth in subparagraphs (a)
 and (c) of the Commercial Computer Software - Restricted
 Rights clause in FAR 52.227-19.
  
 Gaussian, Inc.
 340 Quinnipiac St., Bldg. 40, Wallingford CT 06492
  
  
 ---------------------------------------------------------------
 Warning -- This program may not be used in any manner that
 competes with the business of Gaussian, Inc. or will provide
 assistance to any competitor of Gaussian, Inc.  The licensee
 of this program is prohibited from giving any competitor of
 Gaussian, Inc. access to this program.  By using this program,
 the user acknowledges that Gaussian, Inc. is engaged in the
 business of creating and licensing software in the field of
 computational chemistry and represents and warrants to the
 licensee that it is not a competitor of Gaussian, Inc. and that
 it will not use this program in any manner prohibited above.
 ---------------------------------------------------------------
  

 Cite this work as:
 Gaussian 09, Revision B.01,
 M. J. Frisch, G. W. Trucks, H. B. Schlegel, G. E. Scuseria, 
 M. A. Robb, J. R. Cheeseman, G. Scalmani, V. Barone, B. Mennucci, 
 G. A. Petersson, H. Nakatsuji, M. Caricato, X. Li, H. P. Hratchian, 
 A. F. Izmaylov, J. Bloino, G. Zheng, J. L. Sonnenberg, M. Hada, 
 M. Ehara, K. Toyota, R. Fukuda, J. Hasegawa, M. Ishida, T. Nakajima, 
 Y. Honda, O. Kitao, H. Nakai, T. Vreven, J. A. Montgomery, Jr., 
 J. E. Peralta, F. Ogliaro, M. Bearpark, J. J. Heyd, E. Brothers, 
 K. N. Kudin, V. N. Staroverov, T. Keith, R. Kobayashi, J. Normand, 
 K. Raghavachari, A. Rendell, J. C. Burant, S. S. Iyengar, J. Tomasi, 
 M. Cossi, N. Rega, J. M. Millam, M. Klene, J. E. Knox, J. B. Cross, 
 V. Bakken, C. Adamo, J. Jaramillo, R. Gomperts, R. E. Stratmann, 
 O. Yazyev, A. J. Austin, R. Cammi, C. Pomelli, J. W. Ochterski, 
 R. L. Martin, K. Morokuma, V. G. Zakrzewski, G. A. Voth, 
 P. Salvador, J. J. Dannenberg, S. Dapprich, A. D. Daniels, 
 O. Farkas, J. B. Foresman, J. V. Ortiz, J. Cioslowski, 
 and D. J. Fox, Gaussian, Inc., Wallingford CT, 2010.
 
 ******************************************
 Gaussian 09:  AM64L-G09RevB.01 12-Aug-2010
                12-Dec-2011 
 ******************************************
 %chk=gaussian/glucose/glucose5m062xEtOHnorm.chk
 %mem=5GB
 %nproc=1
 Will use up to    1 processors via shared memory.
 Default route:  MaxDisk=200GB
 ----------------------------------------------------------------------
 # freq=(readfc,internalmodes,noraman) m062x/6-31+g(2df,p) nosymm scrf=
 (solvent=ethanol) geom=allcheck guess=read
 ----------------------------------------------------------------------
 1/18=20,29=7,38=1/1,3;
 2/9=110,12=2,15=1,40=1/2;
 7/8=21,25=11,30=1/16;
 99/5=2/99;
 --------------------------------------------------------------
 d-glucoseStruct5_THF reoptimize d-glucoseArnott.log in solvent
 --------------------------------------------------------------
 Redundant internal coordinates taken from checkpoint file:
 gaussian/glucose/glucose5m062xEtOHnorm.chk
 Charge =  0 Multiplicity = 1
 C,0,0.0105232497,0.2032176311,0.0794491017
 C,0,-0.4815414801,1.6409374892,-0.0388122203
 C,0,0.0738260228,2.257106101,-1.3101683002
 C,0,1.5869945916,2.1267271846,-1.3424854932
 C,0,1.9825717396,0.6639668337,-1.1469332697
 C,0,3.4847995095,0.4710876458,-1.0343601487
 O,0,-0.4302940505,-0.2937010728,1.2944783195
 O,0,-1.8868875037,1.7035157125,-0.1189939861
 O,0,-0.2368956767,3.6309521699,-1.4104619157
 O,0,2.1058962465,2.5561872092,-2.5817432099
 O,0,1.4224636062,0.1767197743,0.0634509707
 O,0,4.0202788487,1.1596084183,0.0768773622
 H,0,-0.3723072827,-0.3980411719,-0.7619479793
 H,0,-0.1087246798,2.197978173,0.833551382
 H,0,-0.342651475,1.7126956667,-2.1733341141
 H,0,2.0113282822,2.7181040104,-0.517966841
 H,0,1.6121762352,0.0777735436,-2.0033911396
 H,0,-0.3339496766,-1.2519175897,1.3054904588
 H,0,-2.2549908105,1.3689511624,0.7062190683
 H,0,-1.1960417887,3.7247573813,-1.4040991177
 H,0,1.7490204333,3.4341831169,-2.7591912158
 H,0,3.5507877624,0.8541873904,0.8614313576
 H,0,3.6972710598,-0.6035456109,-0.9695552565
 H,0,3.9675008369,0.8715438307,-1.9283118128
 Recover connectivity data from disk.

 GradGradGradGradGradGradGradGradGradGradGradGradGradGradGradGradGradGrad
 Berny optimization.
 Initialization pass.
                           ----------------------------
                           !    Initial Parameters    !
                           ! (Angstroms and Degrees)  !
 --------------------------                            --------------------------
 ! Name  Definition              Value          Derivative Info.                !
 --------------------------------------------------------------------------------
 ! R1    R(1,2)                  1.5242         estimate D2E/DX2                !
 ! R2    R(1,7)                  1.3848         estimate D2E/DX2                !
 ! R3    R(1,11)                 1.4123         estimate D2E/DX2                !
 ! R4    R(1,13)                 1.1027         estimate D2E/DX2                !
 ! R5    R(2,3)                  1.518          estimate D2E/DX2                !
 ! R6    R(2,8)                  1.409          estimate D2E/DX2                !
 ! R7    R(2,14)                 1.1001         estimate D2E/DX2                !
 ! R8    R(3,4)                  1.5191         estimate D2E/DX2                !
 ! R9    R(3,9)                  1.4121         estimate D2E/DX2                !
 ! R10   R(3,15)                 1.1022         estimate D2E/DX2                !
 ! R11   R(4,5)                  1.5279         estimate D2E/DX2                !
 ! R12   R(4,10)                 1.4105         estimate D2E/DX2                !
 ! R13   R(4,16)                 1.0998         estimate D2E/DX2                !
 ! R14   R(5,6)                  1.5187         estimate D2E/DX2                !
 ! R15   R(5,11)                 1.4199         estimate D2E/DX2                !
 ! R16   R(5,17)                 1.102          estimate D2E/DX2                !
 ! R17   R(6,12)                 1.4127         estimate D2E/DX2                !
 ! R18   R(6,23)                 1.0974         estimate D2E/DX2                !
 ! R19   R(6,24)                 1.092          estimate D2E/DX2                !
 ! R20   R(7,18)                 0.9631         estimate D2E/DX2                !
 ! R21   R(8,19)                 0.9635         estimate D2E/DX2                !
 ! R22   R(9,20)                 0.9637         estimate D2E/DX2                !
 ! R23   R(10,21)                0.9642         estimate D2E/DX2                !
 ! R24   R(12,22)                0.964          estimate D2E/DX2                !
 ! A1    A(2,1,7)              107.686          estimate D2E/DX2                !
 ! A2    A(2,1,11)             109.8512         estimate D2E/DX2                !
 ! A3    A(2,1,13)             110.0617         estimate D2E/DX2                !
 ! A4    A(7,1,11)             108.7516         estimate D2E/DX2                !
 ! A5    A(7,1,13)             111.3039         estimate D2E/DX2                !
 ! A6    A(11,1,13)            109.1601         estimate D2E/DX2                !
 ! A7    A(1,2,3)              109.2532         estimate D2E/DX2                !
 ! A8    A(1,2,8)              111.611          estimate D2E/DX2                !
 ! A9    A(1,2,14)             107.8594         estimate D2E/DX2                !
 ! A10   A(3,2,8)              107.4099         estimate D2E/DX2                !
 ! A11   A(3,2,14)             109.5483         estimate D2E/DX2                !
 ! A12   A(8,2,14)             111.1391         estimate D2E/DX2                !
 ! A13   A(2,3,4)              110.3279         estimate D2E/DX2                !
 ! A14   A(2,3,9)              111.9551         estimate D2E/DX2                !
 ! A15   A(2,3,15)             108.4901         estimate D2E/DX2                !
 ! A16   A(4,3,9)              107.5277         estimate D2E/DX2                !
 ! A17   A(4,3,15)             108.5011         estimate D2E/DX2                !
 ! A18   A(9,3,15)             109.985          estimate D2E/DX2                !
 ! A19   A(3,4,5)              109.7148         estimate D2E/DX2                !
 ! A20   A(3,4,10)             111.0393         estimate D2E/DX2                !
 ! A21   A(3,4,16)             108.7967         estimate D2E/DX2                !
 ! A22   A(5,4,10)             107.9813         estimate D2E/DX2                !
 ! A23   A(5,4,16)             108.599          estimate D2E/DX2                !
 ! A24   A(10,4,16)            110.672          estimate D2E/DX2                !
 ! A25   A(4,5,6)              112.7784         estimate D2E/DX2                !
 ! A26   A(4,5,11)             109.603          estimate D2E/DX2                !
 ! A27   A(4,5,17)             108.8313         estimate D2E/DX2                !
 ! A28   A(6,5,11)             106.464          estimate D2E/DX2                !
 ! A29   A(6,5,17)             108.8153         estimate D2E/DX2                !
 ! A30   A(11,5,17)            110.3277         estimate D2E/DX2                !
 ! A31   A(5,6,12)             111.7984         estimate D2E/DX2                !
 ! A32   A(5,6,23)             108.679          estimate D2E/DX2                !
 ! A33   A(5,6,24)             109.2669         estimate D2E/DX2                !
 ! A34   A(12,6,23)            110.9437         estimate D2E/DX2                !
 ! A35   A(12,6,24)            107.3172         estimate D2E/DX2                !
 ! A36   A(23,6,24)            108.7765         estimate D2E/DX2                !
 ! A37   A(1,7,18)             109.5856         estimate D2E/DX2                !
 ! A38   A(2,8,19)             108.4742         estimate D2E/DX2                !
 ! A39   A(3,9,20)             108.2533         estimate D2E/DX2                !
 ! A40   A(4,10,21)            107.6246         estimate D2E/DX2                !
 ! A41   A(1,11,5)             113.4275         estimate D2E/DX2                !
 ! A42   A(6,12,22)            107.5284         estimate D2E/DX2                !
 ! D1    D(7,1,2,3)            175.5936         estimate D2E/DX2                !
 ! D2    D(7,1,2,8)            -65.7693         estimate D2E/DX2                !
 ! D3    D(7,1,2,14)            56.587          estimate D2E/DX2                !
 ! D4    D(11,1,2,3)            57.3088         estimate D2E/DX2                !
 ! D5    D(11,1,2,8)           175.946          estimate D2E/DX2                !
 ! D6    D(11,1,2,14)          -61.6977         estimate D2E/DX2                !
 ! D7    D(13,1,2,3)           -62.9117         estimate D2E/DX2                !
 ! D8    D(13,1,2,8)            55.7255         estimate D2E/DX2                !
 ! D9    D(13,1,2,14)          178.0818         estimate D2E/DX2                !
 ! D10   D(2,1,7,18)           165.7048         estimate D2E/DX2                !
 ! D11   D(11,1,7,18)          -75.3052         estimate D2E/DX2                !
 ! D12   D(13,1,7,18)           44.9873         estimate D2E/DX2                !
 ! D13   D(2,1,11,5)           -62.5762         estimate D2E/DX2                !
 ! D14   D(7,1,11,5)           179.8            estimate D2E/DX2                !
 ! D15   D(13,1,11,5)           58.1899         estimate D2E/DX2                !
 ! D16   D(1,2,3,4)            -54.3928         estimate D2E/DX2                !
 ! D17   D(1,2,3,9)           -174.1037         estimate D2E/DX2                !
 ! D18   D(1,2,3,15)            64.3385         estimate D2E/DX2                !
 ! D19   D(8,2,3,4)           -175.6162         estimate D2E/DX2                !
 ! D20   D(8,2,3,9)             64.673          estimate D2E/DX2                !
 ! D21   D(8,2,3,15)           -56.8849         estimate D2E/DX2                !
 ! D22   D(14,2,3,4)            63.5597         estimate D2E/DX2                !
 ! D23   D(14,2,3,9)           -56.1512         estimate D2E/DX2                !
 ! D24   D(14,2,3,15)         -177.709          estimate D2E/DX2                !
 ! D25   D(1,2,8,19)            63.9424         estimate D2E/DX2                !
 ! D26   D(3,2,8,19)          -176.3269         estimate D2E/DX2                !
 ! D27   D(14,2,8,19)          -56.5113         estimate D2E/DX2                !
 ! D28   D(2,3,4,5)             54.0489         estimate D2E/DX2                !
 ! D29   D(2,3,4,10)           173.3361         estimate D2E/DX2                !
 ! D30   D(2,3,4,16)           -64.6272         estimate D2E/DX2                !
 ! D31   D(9,3,4,5)            176.4015         estimate D2E/DX2                !
 ! D32   D(9,3,4,10)           -64.3112         estimate D2E/DX2                !
 ! D33   D(9,3,4,16)            57.7255         estimate D2E/DX2                !
 ! D34   D(15,3,4,5)           -64.6757         estimate D2E/DX2                !
 ! D35   D(15,3,4,10)           54.6115         estimate D2E/DX2                !
 ! D36   D(15,3,4,16)          176.6483         estimate D2E/DX2                !
 ! D37   D(2,3,9,20)           -59.4861         estimate D2E/DX2                !
 ! D38   D(4,3,9,20)           179.1743         estimate D2E/DX2                !
 ! D39   D(15,3,9,20)           61.2078         estimate D2E/DX2                !
 ! D40   D(3,4,5,6)           -174.5021         estimate D2E/DX2                !
 ! D41   D(3,4,5,11)           -56.0874         estimate D2E/DX2                !
 ! D42   D(3,4,5,17)            64.6481         estimate D2E/DX2                !
 ! D43   D(10,4,5,6)            64.35           estimate D2E/DX2                !
 ! D44   D(10,4,5,11)         -177.2353         estimate D2E/DX2                !
 ! D45   D(10,4,5,17)          -56.4998         estimate D2E/DX2                !
 ! D46   D(16,4,5,6)           -55.704          estimate D2E/DX2                !
 ! D47   D(16,4,5,11)           62.7106         estimate D2E/DX2                !
 ! D48   D(16,4,5,17)         -176.5539         estimate D2E/DX2                !
 ! D49   D(3,4,10,21)           51.6758         estimate D2E/DX2                !
 ! D50   D(5,4,10,21)          171.9962         estimate D2E/DX2                !
 ! D51   D(16,4,10,21)         -69.2625         estimate D2E/DX2                !
 ! D52   D(4,5,6,12)            61.265          estimate D2E/DX2                !
 ! D53   D(4,5,6,23)          -175.9431         estimate D2E/DX2                !
 ! D54   D(4,5,6,24)           -57.3814         estimate D2E/DX2                !
 ! D55   D(11,5,6,12)          -58.9693         estimate D2E/DX2                !
 ! D56   D(11,5,6,23)           63.8227         estimate D2E/DX2                !
 ! D57   D(11,5,6,24)         -177.6156         estimate D2E/DX2                !
 ! D58   D(17,5,6,12)         -177.8761         estimate D2E/DX2                !
 ! D59   D(17,5,6,23)          -55.0841         estimate D2E/DX2                !
 ! D60   D(17,5,6,24)           63.4776         estimate D2E/DX2                !
 ! D61   D(4,5,11,1)            61.7785         estimate D2E/DX2                !
 ! D62   D(6,5,11,1)          -175.9582         estimate D2E/DX2                !
 ! D63   D(17,5,11,1)          -58.0454         estimate D2E/DX2                !
 ! D64   D(5,6,12,22)           56.1622         estimate D2E/DX2                !
 ! D65   D(23,6,12,22)         -65.3313         estimate D2E/DX2                !
 ! D66   D(24,6,12,22)         175.9607         estimate D2E/DX2                !
 --------------------------------------------------------------------------------
 Trust Radius=3.00D-01 FncErr=1.00D-07 GrdErr=1.00D-07
 Number of steps in this run=    142 maximum allowed number of steps=    144.
 GradGradGradGradGradGradGradGradGradGradGradGradGradGradGradGradGradGrad

                          Input orientation:                          
 ---------------------------------------------------------------------
 Center     Atomic      Atomic             Coordinates (Angstroms)
 Number     Number       Type             X           Y           Z
 ---------------------------------------------------------------------
      1          6           0        0.010523    0.203218    0.079449
      2          6           0       -0.481541    1.640937   -0.038812
      3          6           0        0.073826    2.257106   -1.310168
      4          6           0        1.586995    2.126727   -1.342485
      5          6           0        1.982572    0.663967   -1.146933
      6          6           0        3.484800    0.471088   -1.034360
      7          8           0       -0.430294   -0.293701    1.294478
      8          8           0       -1.886888    1.703516   -0.118994
      9          8           0       -0.236896    3.630952   -1.410462
     10          8           0        2.105896    2.556187   -2.581743
     11          8           0        1.422464    0.176720    0.063451
     12          8           0        4.020279    1.159608    0.076877
     13          1           0       -0.372307   -0.398041   -0.761948
     14          1           0       -0.108725    2.197978    0.833551
     15          1           0       -0.342651    1.712696   -2.173334
     16          1           0        2.011328    2.718104   -0.517967
     17          1           0        1.612176    0.077774   -2.003391
     18          1           0       -0.333950   -1.251918    1.305490
     19          1           0       -2.254991    1.368951    0.706219
     20          1           0       -1.196042    3.724757   -1.404099
     21          1           0        1.749020    3.434183   -2.759191
     22          1           0        3.550788    0.854187    0.861431
     23          1           0        3.697271   -0.603546   -0.969555
     24          1           0        3.967501    0.871544   -1.928312
 ---------------------------------------------------------------------
                    Distance matrix (angstroms):
                    1          2          3          4          5
     1  C    0.000000
     2  C    1.524189   0.000000
     3  C    2.480625   1.518039   0.000000
     4  C    2.864795   2.492869   1.519119   0.000000
     5  C    2.367547   2.873022   2.491596   1.527871   0.000000
     6  C    3.658267   4.253413   3.860139   2.537272   1.518737
     7  O    1.384754   2.350131   3.680345   4.108711   3.563641
     8  O    2.427023   1.409022   2.360033   3.707276   4.136428
     9  O    3.745720   2.429286   1.412112   2.365140   3.714631
    10  O    4.124197   3.741526   2.415711   1.410480   2.377895
    11  O    1.412280   2.404085   2.834371   2.409618   1.419916
    12  O    4.122236   4.528957   4.324683   2.978386   2.428090
    13  H    1.102733   2.166170   2.747615   3.248129   2.611806
    14  H    2.135875   1.100139   2.152291   2.759652   3.263285
    15  H    2.734646   2.140239   1.102221   2.141323   2.749544
    16  H    3.268758   2.757585   2.143366   1.099826   2.148466
    17  H    2.630447   3.269053   2.756188   2.153054   1.101969
    18  H    1.933716   3.193359   4.395589   4.702876   3.879596
    19  H    2.623801   1.942722   3.205936   4.419532   4.678473
    20  H    4.007238   2.591684   1.943036   3.209796   4.420199
    21  H    4.638900   3.948620   2.508277   1.934618   3.213724
    22  H    3.683576   4.205840   4.332815   3.214513   2.555194
    23  H    3.917064   4.833887   4.629114   3.470840   2.139683
    24  H    4.487253   4.894502   4.178826   2.754176   2.143265
                    6          7          8          9         10
     6  C    0.000000
     7  O    4.619128   0.000000
     8  O    5.586752   2.847533   0.000000
     9  O    4.896653   4.770431   2.846994   0.000000
    10  O    2.939967   5.438678   4.768071   2.831200   0.000000
    11  O    2.354797   2.273639   3.649136   4.105802   3.622982
    12  O    1.412674   4.837588   5.935387   5.142300   3.561398
    13  H    3.963189   2.059888   2.669061   4.083099   4.263873
    14  H    4.402801   2.554276   2.076945   2.665603   4.086208
    15  H    4.181893   4.007372   2.570032   2.067091   2.621767
    16  H    2.736213   4.279889   4.047796   2.585411   2.072277
    17  H    2.144862   3.896873   4.293884   4.049162   2.592448
    18  H    4.798593   0.963111   3.629788   5.588223   5.963648
    19  H    6.064731   2.537712   0.963540   3.697255   5.589057
    20  H    5.712561   4.900683   2.492826   0.963743   3.695294
    21  H    3.842903   5.922733   4.815151   2.408662   0.964222
    22  H    1.935238   4.165836   5.590251   5.217132   4.103653
    23  H    1.097352   4.717907   6.101542   5.796813   3.887870
    24  H    1.092023   5.575372   6.183823   5.055636   2.594334
                   11         12         13         14         15
    11  O    0.000000
    12  O    2.777570   0.000000
    13  H    2.057386   4.735474   0.000000
    14  H    2.650109   4.324285   3.058498   0.000000
    15  H    3.236983   4.940093   2.539311   3.054764   0.000000
    16  H    2.672722   2.611251   3.930853   2.567442   3.048329
    17  H    2.077888   3.361077   2.388672   3.937640   2.554056
    18  H    2.582374   5.126817   2.237158   3.489303   4.570692
    19  H    3.918959   6.310222   2.970231   2.304335   3.473763
    20  H    4.647456   5.998607   4.253042   2.918971   2.316979
    21  H    4.322617   4.286676   4.814037   4.229328   2.771613
    22  H    2.371813   0.963965   4.426524   3.898536   5.010560
    23  H    2.617377   2.075588   4.080049   5.058195   4.809889
    24  H    3.305619   2.026463   4.669709   5.099307   4.398293
                   16         17         18         19         20
    16  H    0.000000
    17  H    3.055675   0.000000
    18  H    4.958467   4.062534   0.000000
    19  H    4.639000   4.895315   3.304312   0.000000
    20  H    3.476464   4.641738   5.731699   3.335362   0.000000
    21  H    2.367417   3.443174   6.543695   5.683868   3.254858
    22  H    2.783318   3.545172   4.441177   5.830621   5.992094
    23  H    3.752291   2.425002   4.674073   6.490638   6.547331
    24  H    3.037346   2.486617   5.785243   6.775512   5.922651
                   21         22         23         24
    21  H    0.000000
    22  H    4.797046   0.000000
    23  H    4.827187   2.344985   0.000000
    24  H    3.489862   2.820748   1.779923   0.000000
 Symmetry turned off by external request.
 Stoichiometry    C6H12O6
 Framework group  C1[X(C6H12O6)]
 Deg. of freedom    66
 Full point group                 C1      NOp   1
 Rotational constants (GHZ):      1.1858590      0.8192297      0.5354916
 Electric field and nuclear coordinate derivatives read from checkpoint file.
 Full mass-weighted force constant matrix:
 Low frequencies ---  -10.8328    0.0000    0.0010    0.0013   10.2222   12.6435
 Low frequencies ---   75.2442   93.2957  118.5774
 Harmonic frequencies (cm**-1), IR intensities (KM/Mole), Raman scattering
 activities (A**4/AMU), depolarization ratios for plane and unpolarized
 incident light, reduced masses (AMU), force constants (mDyne/A),
 and normal coordinates:
                     1                      2                      3
                     A                      A                      A
 Frequencies --    75.2308                93.2894               118.5680
 Red. masses --     6.0789                 5.1418                 6.7646
 Frc consts  --     0.0203                 0.0264                 0.0560
 IR Inten    --     1.9685                 3.3291                 2.0907
  Atom  AN      X      Y      Z        X      Y      Z        X      Y      Z
     1   6     0.00  -0.02  -0.09     0.04   0.02   0.02    -0.05  -0.02  -0.03
     2   6     0.09   0.02   0.05     0.02   0.01  -0.01     0.06   0.03   0.03
     3   6     0.00   0.00   0.00    -0.02  -0.02  -0.05    -0.01  -0.10  -0.06
     4   6    -0.01  -0.03  -0.12    -0.02   0.06  -0.02     0.00  -0.01   0.09
     5   6     0.04  -0.01  -0.05     0.01   0.06  -0.07    -0.01  -0.03  -0.01
     6   6     0.05   0.11   0.12     0.01   0.04  -0.05    -0.01  -0.02   0.00
     7   8    -0.01  -0.11  -0.13     0.15   0.10   0.10    -0.07  -0.04  -0.05
     8   8     0.09   0.15   0.24     0.02  -0.02   0.03     0.06   0.18   0.24
     9   8     0.03   0.01   0.01    -0.12  -0.05  -0.13    -0.12  -0.15  -0.28
    10   8    -0.11  -0.14  -0.20    -0.01   0.14   0.01     0.16   0.15   0.22
    11   8     0.00  -0.06  -0.09     0.04   0.01  -0.08    -0.05  -0.12  -0.06
    12   8    -0.16   0.09   0.23    -0.09  -0.31   0.22     0.03   0.11  -0.11
    13   1    -0.03   0.08  -0.14    -0.04  -0.02   0.09    -0.11   0.05  -0.05
    14   1     0.25  -0.05   0.03     0.03   0.05  -0.04     0.24   0.01  -0.03
    15   1    -0.09   0.00   0.04     0.02  -0.10  -0.02     0.07  -0.26   0.00
    16   1     0.06   0.04  -0.20    -0.06   0.04   0.02    -0.13  -0.09   0.22
    17   1     0.16  -0.04  -0.08     0.01   0.10  -0.10     0.02   0.03  -0.06
    18   1    -0.06  -0.12  -0.23     0.14   0.10   0.14    -0.16  -0.05  -0.10
    19   1     0.17   0.06   0.23     0.05   0.03   0.06     0.15   0.12   0.25
    20   1     0.04   0.04   0.09    -0.13  -0.12  -0.10    -0.13  -0.22  -0.20
    21   1    -0.04  -0.12  -0.20    -0.10   0.11   0.02     0.05   0.11   0.22
    22   1    -0.27   0.02   0.14    -0.25  -0.47   0.06     0.11   0.16  -0.04
    23   1     0.14   0.13   0.08     0.02   0.02  -0.37    -0.02  -0.02   0.12
    24   1     0.13   0.21   0.20     0.07   0.32   0.11    -0.03  -0.14  -0.06
                     4                      5                      6
                     A                      A                      A
 Frequencies --   147.7177               203.7038               234.6237
 Red. masses --     6.2578                 1.8756                 2.6827
 Frc consts  --     0.0805                 0.0459                 0.0870
 IR Inten    --     1.8178                77.4361                15.5491
  Atom  AN      X      Y      Z        X      Y      Z        X      Y      Z
     1   6    -0.04  -0.06   0.02    -0.02  -0.03   0.01    -0.01   0.02   0.03
     2   6     0.01  -0.04  -0.06     0.00  -0.02   0.00    -0.05   0.03   0.07
     3   6     0.02  -0.01  -0.03     0.03  -0.02   0.01     0.02  -0.03   0.06
     4   6     0.00  -0.09  -0.01     0.02   0.02  -0.01     0.01  -0.03   0.02
     5   6    -0.04  -0.11  -0.14     0.01   0.01   0.00     0.02  -0.02  -0.02
     6   6    -0.03   0.02   0.00     0.00  -0.02   0.02     0.00  -0.07   0.04
     7   8     0.14   0.16   0.18     0.05  -0.06   0.02     0.08  -0.11   0.00
     8   8     0.01  -0.04  -0.06     0.01   0.13  -0.11    -0.04   0.04  -0.05
     9   8     0.13   0.03   0.11    -0.11  -0.06   0.05     0.16  -0.01  -0.09
    10   8     0.09   0.05   0.08     0.01  -0.01  -0.02    -0.14   0.12   0.01
    11   8    -0.05  -0.21  -0.18    -0.01   0.01  -0.01    -0.01   0.04  -0.01
    12   8    -0.25   0.19   0.00     0.01   0.01   0.00    -0.02   0.01   0.00
    13   1    -0.24  -0.14   0.17    -0.02  -0.04   0.02    -0.02   0.06  -0.01
    14   1     0.01  -0.04  -0.06    -0.01  -0.03   0.01    -0.10   0.03   0.08
    15   1    -0.03   0.10  -0.07     0.04  -0.04   0.01     0.00  -0.07   0.09
    16   1    -0.02  -0.20   0.08     0.04   0.03  -0.02     0.03  -0.06   0.03
    17   1     0.03  -0.06  -0.20     0.01   0.02  -0.01     0.01  -0.04  -0.01
    18   1     0.06   0.16   0.31     0.21  -0.04   0.04     0.33  -0.09  -0.04
    19   1     0.00   0.10  -0.01    -0.12   0.74   0.07    -0.14   0.35   0.03
    20   1     0.14   0.11   0.12    -0.12  -0.17   0.50     0.17   0.09  -0.46
    21   1     0.14   0.09   0.17     0.11   0.03   0.00    -0.50  -0.03   0.00
    22   1    -0.33   0.22  -0.03     0.01   0.03   0.01    -0.07   0.11   0.01
    23   1     0.07   0.05   0.13    -0.03  -0.02   0.05    -0.05  -0.07   0.15
    24   1     0.03  -0.01   0.02     0.02  -0.06   0.01     0.07  -0.17   0.03
                     7                      8                      9
                     A                      A                      A
 Frequencies --   258.9769               260.9919               289.9014
 Red. masses --     3.5688                 2.2534                 2.0432
 Frc consts  --     0.1410                 0.0904                 0.1012
 IR Inten    --     4.8287                15.2673               103.1968
  Atom  AN      X      Y      Z        X      Y      Z        X      Y      Z
     1   6     0.07   0.03   0.02     0.01   0.00   0.04     0.02   0.01   0.05
     2   6     0.02   0.01   0.01    -0.01   0.01   0.03     0.08   0.02   0.07
     3   6     0.00   0.03  -0.03     0.00  -0.01   0.01     0.09   0.00   0.08
     4   6     0.02   0.02  -0.04    -0.02  -0.04   0.04     0.06   0.04   0.04
     5   6    -0.06   0.00  -0.02    -0.04  -0.02   0.03    -0.01   0.00   0.00
     6   6    -0.11  -0.12  -0.01    -0.01   0.17  -0.15    -0.03  -0.01  -0.04
     7   8     0.07  -0.11  -0.05    -0.02  -0.07   0.00    -0.03  -0.01   0.03
     8   8     0.02  -0.05   0.05    -0.01   0.02  -0.04     0.09   0.04  -0.11
     9   8    -0.03   0.02  -0.01     0.07   0.00  -0.05    -0.05  -0.04  -0.01
    10   8     0.14   0.00   0.00     0.05  -0.08   0.06    -0.05   0.02  -0.02
    11   8     0.05   0.18   0.09     0.02   0.00   0.07     0.02  -0.03   0.01
    12   8    -0.22   0.00  -0.03    -0.07   0.01  -0.02    -0.09   0.02  -0.02
    13   1     0.18   0.04  -0.04     0.05   0.02   0.01    -0.02   0.06   0.03
    14   1     0.02   0.04  -0.01    -0.04   0.03   0.03     0.00   0.01   0.11
    15   1    -0.02   0.02  -0.02    -0.01  -0.02   0.03     0.11  -0.09   0.12
    16   1     0.01  -0.02  -0.01    -0.02  -0.05   0.05     0.14   0.03   0.00
    17   1    -0.20  -0.06   0.08    -0.09  -0.04   0.06    -0.07   0.05  -0.01
    18   1     0.32  -0.09  -0.08     0.04  -0.06  -0.04    -0.61  -0.07  -0.20
    19   1     0.06  -0.11   0.04    -0.06   0.38   0.08    -0.03  -0.39  -0.34
    20   1    -0.03   0.00   0.03     0.08   0.06  -0.13    -0.06  -0.16   0.01
    21   1     0.36   0.09   0.05     0.03  -0.11  -0.02    -0.28  -0.09  -0.12
    22   1    -0.48   0.24  -0.09     0.00  -0.24  -0.07    -0.16   0.05  -0.05
    23   1    -0.21  -0.13   0.16     0.24   0.20  -0.45     0.00   0.00  -0.03
    24   1     0.01  -0.27  -0.02    -0.20   0.52  -0.09    -0.03   0.01  -0.03
                    10                     11                     12
                     A                      A                      A
 Frequencies --   301.3093               323.2520               337.0649
 Red. masses --     2.9911                 1.3649                 1.3391
 Frc consts  --     0.1600                 0.0840                 0.0896
 IR Inten    --    33.3124               148.9020                88.4074
  Atom  AN      X      Y      Z        X      Y      Z        X      Y      Z
     1   6    -0.04   0.04   0.00    -0.01  -0.03  -0.01     0.01  -0.03  -0.02
     2   6    -0.04   0.07   0.08     0.00  -0.02  -0.02     0.03  -0.03  -0.03
     3   6     0.01   0.10   0.08     0.01  -0.04  -0.01     0.01   0.02  -0.01
     4   6     0.02   0.08   0.07     0.00  -0.02   0.00     0.01   0.04   0.01
     5   6    -0.02   0.06   0.01     0.00  -0.02   0.00    -0.01   0.02   0.02
     6   6    -0.03   0.01   0.03     0.00   0.02  -0.02    -0.02  -0.01   0.00
     7   8     0.13  -0.08   0.02    -0.02   0.00   0.00    -0.04   0.03  -0.02
     8   8    -0.04  -0.01  -0.03     0.00   0.12  -0.01     0.04  -0.02   0.01
     9   8    -0.08   0.07  -0.06     0.00  -0.04   0.04    -0.05   0.02   0.07
    10   8     0.06  -0.16   0.00     0.00   0.01   0.01     0.05   0.00   0.01
    11   8    -0.06  -0.10  -0.10    -0.01   0.02   0.02     0.01  -0.02   0.01
    12   8     0.04   0.01   0.00    -0.01   0.00   0.00    -0.01   0.00  -0.01
    13   1    -0.17   0.13   0.00     0.03  -0.06  -0.01     0.03  -0.05  -0.01
    14   1    -0.12   0.05   0.13     0.05  -0.06  -0.01     0.06  -0.04  -0.04
    15   1     0.05   0.02   0.11     0.01  -0.02  -0.02     0.03   0.05  -0.04
    16   1     0.10   0.12   0.00    -0.01  -0.03   0.01     0.00   0.05   0.00
    17   1     0.01   0.18  -0.09    -0.01  -0.03   0.02    -0.03   0.05   0.00
    18   1     0.32  -0.06  -0.05     0.64   0.07   0.27     0.15   0.05   0.11
    19   1    -0.10  -0.25  -0.15    -0.04  -0.58  -0.31     0.07   0.29   0.15
    20   1    -0.09  -0.02  -0.56     0.00  -0.05  -0.04    -0.06  -0.07  -0.49
    21   1     0.35  -0.06  -0.06    -0.11  -0.04  -0.03    -0.53  -0.32  -0.39
    22   1     0.13  -0.02   0.04     0.04  -0.07   0.00    -0.05   0.05  -0.01
    23   1    -0.10  -0.01   0.07     0.05   0.03  -0.07    -0.05  -0.02   0.03
    24   1    -0.01  -0.06   0.01    -0.03   0.08  -0.01    -0.01  -0.04   0.00
                    13                     14                     15
                     A                      A                      A
 Frequencies --   348.2319               365.2733               399.5186
 Red. masses --     2.0608                 1.3900                 1.2960
 Frc consts  --     0.1472                 0.1093                 0.1219
 IR Inten    --   181.8238               121.9045               202.3672
  Atom  AN      X      Y      Z        X      Y      Z        X      Y      Z
     1   6    -0.03  -0.07   0.02     0.01   0.00   0.00     0.00   0.02  -0.01
     2   6    -0.04  -0.06  -0.06     0.03  -0.01   0.01    -0.03   0.02   0.01
     3   6    -0.03  -0.04  -0.06     0.03  -0.01   0.03    -0.02  -0.01   0.01
     4   6    -0.02  -0.01  -0.06     0.02   0.00   0.00    -0.02  -0.03   0.02
     5   6    -0.01   0.02   0.00     0.01  -0.01   0.00     0.03  -0.01  -0.01
     6   6     0.00   0.02   0.01     0.01   0.00  -0.02     0.05   0.02  -0.03
     7   8     0.09  -0.06   0.08    -0.08   0.04  -0.01     0.00   0.02  -0.02
     8   8    -0.04   0.11   0.01     0.04  -0.01  -0.02    -0.04   0.03   0.00
     9   8     0.01  -0.02   0.09    -0.03  -0.03   0.04    -0.01  -0.01   0.02
    10   8     0.05   0.02  -0.02    -0.07   0.02  -0.04     0.00  -0.04   0.04
    11   8    -0.02   0.08   0.01     0.02  -0.02   0.01     0.02  -0.01  -0.01
    12   8     0.03  -0.01   0.01    -0.02   0.00  -0.01     0.06  -0.04   0.01
    13   1     0.00  -0.16   0.08     0.03   0.00  -0.01     0.01   0.03  -0.02
    14   1     0.05  -0.07  -0.09     0.02  -0.02   0.02    -0.04   0.02   0.01
    15   1    -0.04   0.05  -0.10     0.06  -0.02   0.03    -0.03  -0.01   0.02
    16   1    -0.08   0.00  -0.03     0.08  -0.01  -0.02    -0.03  -0.02   0.03
    17   1     0.02  -0.03   0.02     0.00  -0.02   0.00     0.05  -0.01  -0.01
    18   1    -0.62  -0.14  -0.19     0.14   0.06   0.12    -0.04   0.02  -0.03
    19   1    -0.04  -0.09  -0.07     0.02   0.20   0.06    -0.05  -0.02  -0.03
    20   1     0.01  -0.02  -0.61    -0.04  -0.12  -0.59    -0.01  -0.01  -0.02
    21   1     0.13   0.06   0.03     0.50   0.33   0.38    -0.02  -0.06  -0.01
    22   1     0.06  -0.02   0.02    -0.07   0.03  -0.02    -0.68   0.68  -0.15
    23   1     0.00   0.02  -0.01     0.04   0.00  -0.02     0.06   0.01  -0.09
    24   1    -0.01   0.03   0.01     0.01   0.02  -0.01     0.03   0.07  -0.02
                    16                     17                     18
                     A                      A                      A
 Frequencies --   416.4599               428.2233               462.0996
 Red. masses --     3.1947                 5.9935                 5.4297
 Frc consts  --     0.3265                 0.6475                 0.6831
 IR Inten    --    32.3161                 2.3747                11.4753
  Atom  AN      X      Y      Z        X      Y      Z        X      Y      Z
     1   6     0.07   0.16  -0.02     0.15  -0.09  -0.03     0.04  -0.04  -0.19
     2   6    -0.02   0.12   0.04     0.11  -0.02  -0.15    -0.08  -0.10  -0.09
     3   6    -0.08  -0.01   0.01    -0.12   0.11  -0.13     0.08  -0.06   0.08
     4   6    -0.05  -0.16  -0.02    -0.19  -0.01   0.08     0.07   0.05   0.23
     5   6     0.05  -0.16  -0.06    -0.07  -0.02   0.13     0.04   0.10   0.02
     6   6     0.09  -0.05   0.00    -0.09  -0.03   0.05    -0.01  -0.04  -0.04
     7   8     0.06   0.06  -0.09     0.12  -0.02  -0.03     0.13   0.18  -0.12
     8   8    -0.03   0.03  -0.04     0.15   0.11  -0.09    -0.09   0.05   0.06
     9   8    -0.12   0.00   0.10    -0.03   0.17  -0.06     0.05  -0.10   0.00
    10   8     0.02  -0.02   0.08    -0.19  -0.04   0.11    -0.13  -0.17   0.11
    11   8     0.07   0.02   0.00     0.12  -0.17   0.12     0.03   0.13  -0.04
    12   8    -0.03   0.03   0.01     0.01  -0.02   0.00    -0.11   0.02  -0.04
    13   1     0.05   0.26  -0.09     0.21  -0.15  -0.02     0.15  -0.18  -0.13
    14   1    -0.08   0.22   0.00     0.21  -0.02  -0.18    -0.01  -0.27  -0.01
    15   1    -0.19   0.01   0.06    -0.13   0.20  -0.17     0.33  -0.08  -0.04
    16   1    -0.05  -0.28   0.07    -0.28   0.03   0.10     0.12   0.11   0.15
    17   1     0.07  -0.27   0.00    -0.08  -0.03   0.14    -0.07   0.26  -0.04
    18   1    -0.11   0.04  -0.25    -0.02  -0.04  -0.05    -0.30   0.14  -0.05
    19   1    -0.07   0.03  -0.06     0.10   0.01  -0.15     0.01   0.09   0.12
    20   1    -0.13  -0.10  -0.22    -0.02   0.24  -0.01     0.05  -0.12   0.02
    21   1    -0.15  -0.09   0.05     0.07   0.09   0.26     0.04  -0.12   0.07
    22   1     0.31  -0.37   0.06    -0.04   0.12   0.03     0.10  -0.25  -0.02
    23   1     0.17  -0.03   0.05    -0.19  -0.05   0.11    -0.10  -0.05   0.04
    24   1     0.11  -0.05   0.02    -0.08  -0.13   0.02     0.06  -0.12  -0.03
                    19                     20                     21
                     A                      A                      A
 Frequencies --   527.2288               575.8369               595.7457
 Red. masses --     5.1602                 3.2580                 3.8604
 Frc consts  --     0.8451                 0.6365                 0.8073
 IR Inten    --    44.7167                 3.5884                44.0609
  Atom  AN      X      Y      Z        X      Y      Z        X      Y      Z
     1   6     0.04  -0.16   0.01     0.11  -0.03   0.07    -0.02  -0.14  -0.10
     2   6    -0.13  -0.08  -0.03    -0.02  -0.03   0.10     0.06  -0.12   0.12
     3   6     0.04   0.17   0.07    -0.13  -0.06   0.03    -0.04   0.07   0.16
     4   6     0.13   0.00   0.01    -0.13   0.07  -0.02    -0.07  -0.10  -0.05
     5   6     0.12  -0.12  -0.02     0.06   0.16  -0.09    -0.07  -0.06  -0.11
     6   6     0.17  -0.09  -0.06     0.03  -0.01  -0.02    -0.03   0.04   0.03
     7   8    -0.06  -0.02   0.06    -0.13   0.00   0.02     0.00   0.06  -0.01
     8   8    -0.18   0.08   0.06    -0.03   0.06  -0.04     0.13  -0.02  -0.04
     9   8    -0.11   0.20  -0.12     0.07  -0.04   0.00    -0.03   0.08  -0.10
    10   8     0.01   0.05  -0.07     0.06  -0.04   0.02     0.03  -0.03   0.06
    11   8     0.12  -0.07   0.07     0.16  -0.04  -0.07    -0.06   0.18  -0.05
    12   8    -0.07   0.02  -0.01    -0.04   0.00   0.00     0.07   0.00   0.03
    13   1     0.17  -0.32   0.07     0.15  -0.03   0.05     0.03  -0.24  -0.04
    14   1    -0.16  -0.26   0.10    -0.07  -0.01   0.11     0.07  -0.47   0.34
    15   1     0.14   0.19   0.00    -0.29  -0.09   0.13    -0.23   0.01   0.29
    16   1     0.31  -0.07  -0.03    -0.29   0.18  -0.02     0.04  -0.28   0.03
    17   1     0.03  -0.13   0.03     0.04   0.21  -0.13     0.02  -0.20  -0.05
    18   1    -0.11  -0.03   0.22    -0.06   0.01   0.16    -0.11   0.06   0.21
    19   1    -0.14  -0.01   0.05    -0.20   0.05  -0.11    -0.07   0.09  -0.09
    20   1    -0.13   0.05   0.06     0.09   0.18  -0.03    -0.03   0.09  -0.05
    21   1    -0.07   0.03  -0.03     0.14  -0.05  -0.15     0.00  -0.04   0.02
    22   1    -0.05  -0.15  -0.07     0.07  -0.19  -0.02     0.05   0.08   0.06
    23   1     0.30  -0.06  -0.03    -0.27  -0.06   0.20    -0.03   0.04   0.03
    24   1     0.18  -0.03  -0.03     0.29  -0.29   0.01    -0.01   0.04   0.04
                    22                     23                     24
                     A                      A                      A
 Frequencies --   642.4765               724.7036               924.6858
 Red. masses --     5.2773                 3.8487                 1.9081
 Frc consts  --     1.2835                 1.1909                 0.9612
 IR Inten    --    42.2613                 3.0005                34.1521
  Atom  AN      X      Y      Z        X      Y      Z        X      Y      Z
     1   6     0.08  -0.03  -0.11    -0.14  -0.01  -0.08     0.09   0.00   0.02
     2   6    -0.06  -0.03   0.12     0.03  -0.01   0.07     0.00  -0.02   0.02
     3   6    -0.03  -0.03   0.13    -0.12  -0.03   0.01    -0.05  -0.03  -0.02
     4   6    -0.01   0.02  -0.12    -0.06   0.07  -0.01     0.03   0.03   0.02
     5   6    -0.08  -0.03   0.15     0.15   0.04   0.18     0.07  -0.04   0.05
     6   6    -0.17   0.04   0.05     0.22  -0.12  -0.07    -0.07  -0.11   0.12
     7   8     0.13   0.14  -0.15     0.07   0.03  -0.01    -0.03  -0.01   0.01
     8   8    -0.11   0.04   0.00     0.10  -0.03  -0.03     0.00   0.01   0.00
     9   8     0.04  -0.08   0.00     0.01   0.01   0.00    -0.01   0.02   0.00
    10   8     0.12   0.13  -0.15     0.02   0.02  -0.02    -0.01   0.00   0.00
    11   8     0.05  -0.18   0.12    -0.14   0.00   0.07     0.02   0.05  -0.11
    12   8     0.02  -0.02   0.00    -0.10   0.01  -0.06    -0.03  -0.01  -0.05
    13   1     0.15   0.01  -0.18    -0.21   0.02  -0.07     0.08  -0.01   0.03
    14   1    -0.15  -0.22   0.27     0.09  -0.13   0.11     0.00   0.04  -0.02
    15   1    -0.18  -0.13   0.25    -0.31  -0.05   0.11    -0.07  -0.01  -0.01
    16   1     0.01   0.10  -0.18    -0.31   0.34  -0.08    -0.06   0.14  -0.01
    17   1    -0.08  -0.10   0.20     0.09   0.10   0.16     0.17   0.07  -0.07
    18   1    -0.09   0.13  -0.03     0.01   0.02  -0.02    -0.03  -0.01   0.05
    19   1    -0.22   0.05  -0.04    -0.03   0.02  -0.07    -0.06   0.02  -0.03
    20   1     0.05   0.00  -0.03     0.03   0.18  -0.02     0.00   0.10  -0.01
    21   1     0.06   0.12  -0.07     0.07   0.03  -0.08     0.01   0.00  -0.02
    22   1     0.03   0.13   0.06    -0.14  -0.17  -0.15     0.17   0.24   0.16
    23   1    -0.11   0.04  -0.06     0.36  -0.10  -0.12     0.38  -0.05  -0.35
    24   1    -0.33   0.12   0.00     0.12  -0.02  -0.08    -0.51   0.42   0.11
                    25                     26                     27
                     A                      A                      A
 Frequencies --   935.8602              1038.0203              1050.1462
 Red. masses --     2.6983                 2.8980                 2.9303
 Frc consts  --     1.3924                 1.8398                 1.9040
 IR Inten    --    16.9167                90.7819                65.3338
  Atom  AN      X      Y      Z        X      Y      Z        X      Y      Z
     1   6    -0.04  -0.01  -0.02     0.01  -0.07  -0.09     0.00  -0.10  -0.01
     2   6     0.00   0.02   0.01     0.06   0.16  -0.08     0.10   0.05   0.19
     3   6     0.04  -0.01  -0.01     0.11   0.14   0.10     0.15  -0.04  -0.19
     4   6     0.04  -0.16  -0.06    -0.16   0.06  -0.10     0.00  -0.02  -0.09
     5   6     0.19   0.10   0.11     0.02  -0.01  -0.01    -0.05   0.03   0.05
     6   6    -0.09   0.13   0.04     0.03  -0.02   0.06     0.02  -0.05  -0.04
     7   8    -0.01  -0.01   0.02    -0.01  -0.04   0.05     0.02   0.02  -0.05
     8   8    -0.01  -0.01   0.00    -0.07   0.00  -0.02    -0.09  -0.02   0.01
     9   8    -0.03   0.06   0.00     0.04  -0.10   0.00     0.01   0.08   0.01
    10   8     0.00   0.00   0.01    -0.02   0.00   0.07    -0.04  -0.02   0.06
    11   8     0.02   0.01  -0.02     0.01   0.01   0.01     0.01   0.02  -0.03
    12   8    -0.06  -0.06  -0.09    -0.03  -0.02  -0.05     0.02   0.03   0.04
    13   1    -0.06  -0.01  -0.01     0.03  -0.15  -0.04    -0.02   0.05  -0.11
    14   1    -0.01  -0.01   0.03    -0.11   0.06   0.05     0.05   0.07   0.19
    15   1    -0.07   0.03   0.02    -0.02   0.02   0.22     0.04   0.05  -0.18
    16   1    -0.01  -0.12  -0.05    -0.21   0.05  -0.06    -0.28   0.11  -0.04
    17   1     0.64  -0.06   0.03     0.18  -0.19   0.04    -0.23   0.12   0.05
    18   1    -0.01  -0.01   0.04    -0.05  -0.04   0.20    -0.14   0.01   0.37
    19   1     0.00  -0.01   0.00     0.46  -0.08   0.20    -0.39   0.02  -0.11
    20   1    -0.05  -0.12   0.01     0.01  -0.39   0.01    -0.06  -0.48   0.02
    21   1    -0.16  -0.01   0.28     0.18   0.00  -0.31    -0.05  -0.02   0.12
    22   1    -0.06  -0.08  -0.10     0.06   0.06   0.04    -0.01  -0.01   0.01
    23   1    -0.47   0.05   0.10     0.10  -0.01  -0.07     0.08  -0.04  -0.05
    24   1    -0.10  -0.14  -0.08    -0.03   0.10   0.08     0.00   0.01  -0.02
                    28                     29                     30
                     A                      A                      A
 Frequencies --  1062.5540              1083.2769              1107.6790
 Red. masses --     2.2945                 2.8259                 1.8466
 Frc consts  --     1.5263                 1.9538                 1.3349
 IR Inten    --    41.8716                22.3593                12.7522
  Atom  AN      X      Y      Z        X      Y      Z        X      Y      Z
     1   6    -0.01  -0.14  -0.09     0.12   0.08   0.05    -0.12   0.01  -0.02
     2   6     0.01   0.20  -0.01     0.00  -0.07  -0.11     0.01   0.00  -0.02
     3   6    -0.11  -0.02   0.02     0.05   0.03   0.10     0.00  -0.02   0.00
     4   6     0.10  -0.06   0.06    -0.02  -0.13  -0.09     0.04  -0.05  -0.05
     5   6    -0.02   0.02   0.04    -0.06   0.11   0.14     0.01   0.11  -0.10
     6   6    -0.02  -0.03  -0.06     0.04  -0.09  -0.09    -0.01  -0.05   0.04
     7   8     0.00  -0.03   0.02    -0.03  -0.01   0.02     0.01   0.01   0.00
     8   8     0.00  -0.01  -0.02    -0.02   0.02   0.00     0.00   0.00   0.00
     9   8    -0.02  -0.03   0.02     0.00   0.01  -0.02    -0.01   0.02   0.00
    10   8     0.02   0.00  -0.05     0.02   0.00   0.00     0.00  -0.02   0.03
    11   8     0.02   0.03  -0.02    -0.05   0.00  -0.10     0.07  -0.04   0.10
    12   8     0.02   0.03   0.05     0.02   0.06   0.07    -0.02  -0.01  -0.03
    13   1     0.05  -0.16  -0.09     0.12  -0.02   0.12    -0.13  -0.01   0.01
    14   1     0.00   0.37  -0.12    -0.11  -0.17   0.00     0.03  -0.13   0.05
    15   1    -0.25  -0.12   0.15    -0.22   0.08   0.20    -0.20   0.00   0.09
    16   1     0.18  -0.05   0.01    -0.10   0.02  -0.16     0.02  -0.05  -0.04
    17   1    -0.19   0.18   0.00    -0.32   0.29   0.12    -0.20   0.30  -0.14
    18   1    -0.15  -0.04   0.47     0.10   0.00  -0.26     0.07   0.01  -0.18
    19   1     0.24  -0.03   0.08     0.26  -0.03   0.10     0.08  -0.02   0.03
    20   1     0.02   0.30  -0.01    -0.03  -0.24   0.01    -0.01  -0.04   0.00
    21   1    -0.15   0.00   0.26    -0.20  -0.01   0.37    -0.11  -0.02   0.20
    22   1    -0.03  -0.02   0.00    -0.09  -0.07  -0.04     0.29   0.32   0.27
    23   1    -0.03  -0.02  -0.01     0.06  -0.08  -0.09     0.01  -0.06  -0.30
    24   1    -0.03  -0.03  -0.06    -0.07  -0.03  -0.11     0.24   0.28   0.32
                    31                     32                     33
                     A                      A                      A
 Frequencies --  1120.5837              1139.8672              1147.5236
 Red. masses --     3.8063                 3.6381                 3.0210
 Frc consts  --     2.8160                 2.7850                 2.3438
 IR Inten    --   262.0817               441.5833               175.7762
  Atom  AN      X      Y      Z        X      Y      Z        X      Y      Z
     1   6     0.24  -0.05   0.04     0.10   0.02  -0.01     0.03   0.06  -0.11
     2   6     0.03  -0.01   0.02     0.20  -0.03  -0.02     0.05   0.00   0.05
     3   6    -0.01  -0.01   0.00    -0.05  -0.06  -0.01    -0.09   0.26  -0.13
     4   6     0.00  -0.04   0.02     0.17   0.12  -0.15     0.04  -0.02   0.01
     5   6    -0.08   0.08  -0.03     0.06  -0.02  -0.09    -0.02   0.02   0.05
     6   6     0.15   0.11   0.14    -0.06   0.01  -0.04     0.02   0.00   0.01
     7   8     0.01   0.00  -0.04    -0.01   0.00   0.02    -0.03  -0.02   0.10
     8   8    -0.03   0.01   0.00    -0.15   0.01  -0.03    -0.02  -0.02   0.02
     9   8     0.00   0.01   0.00    -0.03   0.01   0.01     0.02  -0.19   0.01
    10   8     0.02   0.00  -0.04    -0.06  -0.04   0.14     0.00  -0.01   0.00
    11   8    -0.21  -0.02   0.03    -0.12  -0.03   0.07     0.02   0.00  -0.02
    12   8    -0.07  -0.10  -0.15     0.02   0.02   0.04    -0.01  -0.01  -0.01
    13   1     0.19   0.04  -0.02     0.00   0.05   0.02     0.04   0.05  -0.10
    14   1    -0.01   0.27  -0.14     0.23  -0.14   0.03     0.16  -0.40   0.26
    15   1     0.07   0.00  -0.04    -0.38  -0.19   0.24    -0.03   0.28  -0.18
    16   1     0.15  -0.15   0.02     0.21   0.12  -0.16     0.26  -0.16   0.01
    17   1    -0.16   0.09   0.01     0.14  -0.12  -0.04    -0.05   0.00   0.08
    18   1    -0.11   0.00   0.27     0.06   0.00  -0.17     0.05  -0.02  -0.15
    19   1    -0.04   0.02   0.00     0.13  -0.01   0.09    -0.46   0.06  -0.15
    20   1     0.00   0.03   0.00     0.02   0.44  -0.04     0.06   0.15  -0.01
    21   1    -0.12   0.00   0.20     0.04  -0.04  -0.03    -0.14  -0.02   0.21
    22   1     0.12   0.16   0.05    -0.09  -0.11  -0.08     0.01   0.02   0.01
    23   1     0.08   0.07   0.05    -0.03   0.03   0.06     0.00   0.00   0.00
    24   1     0.49   0.12   0.33    -0.16  -0.10  -0.15     0.04   0.02   0.03
                    34                     35                     36
                     A                      A                      A
 Frequencies --  1167.8894              1175.2924              1190.0481
 Red. masses --     3.4587                 3.0623                 2.6112
 Frc consts  --     2.7795                 2.4922                 2.1788
 IR Inten    --   151.0929                85.4010                27.4396
  Atom  AN      X      Y      Z        X      Y      Z        X      Y      Z
     1   6     0.15   0.01  -0.10     0.06   0.05  -0.11    -0.05  -0.07   0.15
     2   6    -0.15   0.01   0.03     0.14   0.01   0.00     0.17  -0.05  -0.01
     3   6     0.00   0.02   0.00     0.02  -0.06  -0.03    -0.03   0.09   0.06
     4   6    -0.03  -0.02  -0.02    -0.06  -0.05   0.23    -0.09  -0.05   0.06
     5   6     0.13   0.09  -0.13     0.05  -0.06  -0.06     0.04   0.07   0.00
     6   6    -0.08  -0.11  -0.11    -0.03   0.02  -0.02    -0.01  -0.08  -0.04
     7   8     0.00  -0.02   0.05    -0.03  -0.02   0.09     0.03   0.03  -0.11
     8   8     0.10   0.00   0.03    -0.10   0.00  -0.02    -0.09   0.00  -0.01
     9   8     0.02   0.00   0.00     0.01   0.06   0.00     0.01  -0.05  -0.01
    10   8     0.00   0.00   0.01     0.04   0.03  -0.15     0.02   0.02  -0.05
    11   8    -0.14  -0.05   0.13    -0.03   0.02   0.04    -0.02   0.01   0.01
    12   8     0.03   0.07   0.09     0.01   0.00   0.02     0.01   0.04   0.04
    13   1     0.14   0.12  -0.18     0.03   0.04  -0.08    -0.19  -0.02   0.18
    14   1    -0.19   0.15  -0.04     0.20  -0.33   0.18     0.37   0.29  -0.30
    15   1     0.18   0.15  -0.18    -0.21  -0.11   0.12     0.16   0.13  -0.05
    16   1     0.06  -0.18   0.04    -0.45   0.10   0.32     0.19  -0.38   0.15
    17   1     0.29   0.04  -0.16    -0.03   0.16  -0.17     0.31   0.02  -0.08
    18   1    -0.10  -0.03   0.24     0.09  -0.01  -0.24     0.01   0.04  -0.01
    19   1    -0.18   0.05  -0.09     0.12  -0.02   0.08    -0.16   0.00  -0.04
    20   1    -0.02  -0.28   0.02    -0.04  -0.32   0.00     0.02   0.07  -0.01
    21   1     0.06   0.00  -0.12    -0.01   0.05  -0.01     0.04   0.01  -0.11
    22   1     0.06   0.07   0.11     0.03   0.04   0.04     0.01   0.02   0.03
    23   1    -0.19  -0.13  -0.34    -0.09   0.01   0.01    -0.10  -0.11  -0.23
    24   1    -0.15   0.04  -0.08     0.00  -0.03  -0.02    -0.11   0.05  -0.04
                    37                     38                     39
                     A                      A                      A
 Frequencies --  1208.7019              1231.5724              1241.4617
 Red. masses --     1.6014                 1.2525                 1.2344
 Frc consts  --     1.3785                 1.1193                 1.1209
 IR Inten    --    34.7714                42.2015                36.0862
  Atom  AN      X      Y      Z        X      Y      Z        X      Y      Z
     1   6    -0.01  -0.04   0.10    -0.01   0.00  -0.07    -0.02   0.02  -0.01
     2   6    -0.04   0.03   0.00     0.00  -0.01  -0.04     0.02  -0.07  -0.01
     3   6    -0.01   0.08  -0.04    -0.01  -0.02   0.09     0.00   0.04   0.05
     4   6     0.06   0.00   0.03     0.02   0.01  -0.02    -0.03  -0.02  -0.01
     5   6     0.02  -0.03  -0.07     0.00  -0.02   0.00     0.01  -0.03  -0.05
     6   6    -0.01   0.02   0.04     0.00   0.02   0.02    -0.01   0.01   0.02
     7   8     0.02   0.02  -0.08    -0.01   0.00   0.04     0.01  -0.02   0.00
     8   8     0.03   0.00   0.01     0.00  -0.02   0.02    -0.02   0.01  -0.01
     9   8     0.02  -0.04   0.00     0.02   0.02  -0.02    -0.01  -0.02  -0.01
    10   8     0.00  -0.01  -0.01     0.00   0.00   0.02     0.03  -0.01  -0.01
    11   8    -0.03   0.00   0.04     0.02   0.00   0.00     0.02   0.01   0.03
    12   8     0.01  -0.01  -0.01     0.00  -0.01  -0.01     0.01   0.00   0.00
    13   1     0.11  -0.28   0.22     0.02  -0.02  -0.06    -0.16   0.42  -0.23
    14   1    -0.17  -0.01   0.08     0.41   0.32  -0.42     0.02   0.06  -0.09
    15   1    -0.44   0.20   0.08    -0.20   0.13   0.09     0.23   0.13  -0.11
    16   1    -0.14   0.19   0.00     0.04   0.10  -0.10    -0.19   0.39  -0.22
    17   1     0.08   0.25  -0.29    -0.14   0.05   0.01     0.00   0.12  -0.15
    18   1     0.02   0.02  -0.07     0.04   0.00  -0.11    -0.11  -0.02   0.32
    19   1     0.00  -0.01  -0.01    -0.48   0.06  -0.17     0.08  -0.01   0.03
    20   1    -0.01  -0.33   0.02    -0.02  -0.34   0.02     0.01   0.15   0.00
    21   1    -0.07  -0.01   0.13     0.04   0.00  -0.05    -0.20  -0.02   0.36
    22   1    -0.13  -0.17  -0.15    -0.02  -0.03  -0.03    -0.05  -0.07  -0.06
    23   1     0.16   0.07   0.16     0.08   0.04   0.10     0.11   0.04   0.09
    24   1    -0.21  -0.06  -0.11    -0.03  -0.02  -0.01    -0.12  -0.03  -0.05
                    40                     41                     42
                     A                      A                      A
 Frequencies --  1248.5464              1249.4193              1321.8078
 Red. masses --     1.4223                 1.1719                 1.3166
 Frc consts  --     1.3064                 1.0778                 1.3553
 IR Inten    --    39.1822                 9.7703                19.3877
  Atom  AN      X      Y      Z        X      Y      Z        X      Y      Z
     1   6    -0.01   0.00  -0.05    -0.01   0.03   0.01    -0.02   0.04   0.04
     2   6     0.00   0.04   0.02     0.00  -0.08  -0.02    -0.01   0.03  -0.03
     3   6     0.01  -0.05   0.00    -0.02   0.00  -0.02     0.04   0.02   0.02
     4   6    -0.05  -0.03  -0.03     0.04   0.01   0.02     0.01  -0.07  -0.04
     5   6    -0.04   0.10  -0.04     0.00   0.03   0.02     0.03  -0.05   0.04
     6   6     0.03  -0.02   0.09     0.01   0.01   0.02    -0.01   0.03  -0.03
     7   8    -0.01   0.00   0.03     0.01  -0.02   0.00     0.01  -0.02  -0.02
     8   8    -0.01   0.00   0.00     0.00   0.01  -0.01     0.00  -0.01   0.01
     9   8    -0.01   0.02   0.01     0.01   0.00  -0.01    -0.02  -0.02   0.00
    10   8     0.00   0.00   0.00    -0.02   0.01   0.00    -0.02   0.03   0.02
    11   8     0.02  -0.02   0.03     0.02   0.00   0.00    -0.02   0.00   0.00
    12   8     0.01   0.00  -0.02     0.00  -0.01  -0.01    -0.01  -0.01   0.00
    13   1     0.09  -0.07  -0.04    -0.16   0.42  -0.21     0.31  -0.03  -0.05
    14   1     0.07  -0.07   0.06    -0.13  -0.02   0.00     0.20  -0.18   0.02
    15   1     0.27  -0.15  -0.06    -0.40   0.15   0.07     0.07  -0.02   0.03
    16   1     0.16  -0.33   0.07     0.14  -0.34   0.21    -0.20  -0.03   0.04
    17   1    -0.01   0.25  -0.16    -0.11   0.04   0.06    -0.12   0.50  -0.28
    18   1     0.05   0.00  -0.14    -0.12  -0.02   0.35    -0.09  -0.02   0.24
    19   1     0.01   0.00   0.01     0.17  -0.02   0.06    -0.14   0.02  -0.05
    20   1     0.00   0.12   0.00    -0.01  -0.22   0.00     0.02   0.31  -0.02
    21   1     0.02   0.00  -0.05     0.15   0.02  -0.27     0.21   0.03  -0.38
    22   1    -0.26  -0.28  -0.28    -0.05  -0.04  -0.05     0.08   0.09   0.09
    23   1     0.35   0.05   0.17     0.06   0.02   0.06    -0.02   0.03   0.07
    24   1    -0.41   0.00  -0.15    -0.07   0.00  -0.03     0.08  -0.04  -0.01
                    43                     44                     45
                     A                      A                      A
 Frequencies --  1331.1853              1343.0600              1349.7068
 Red. masses --     1.3130                 1.2904                 1.3360
 Frc consts  --     1.3709                 1.3714                 1.4340
 IR Inten    --   118.5687                50.9404                 4.4592
  Atom  AN      X      Y      Z        X      Y      Z        X      Y      Z
     1   6    -0.03   0.06   0.04     0.00   0.00   0.01    -0.04  -0.02  -0.04
     2   6    -0.03   0.03  -0.05     0.00   0.02   0.06     0.04  -0.08   0.05
     3   6     0.00  -0.02  -0.01    -0.10  -0.04   0.00     0.03   0.00  -0.02
     4   6    -0.02   0.05   0.02    -0.03  -0.01   0.00    -0.01   0.02   0.00
     5   6    -0.08   0.01   0.00     0.02  -0.03   0.03    -0.08  -0.04   0.05
     6   6     0.03  -0.03   0.01    -0.01   0.02  -0.03     0.02  -0.01  -0.02
     7   8     0.02  -0.02  -0.01     0.00   0.00   0.00    -0.01   0.02   0.04
     8   8     0.00  -0.01   0.00    -0.02   0.01  -0.04     0.00   0.01   0.00
     9   8     0.01   0.02   0.01     0.03   0.02  -0.01     0.00   0.00   0.00
    10   8     0.01  -0.01  -0.01     0.00   0.01   0.02     0.00   0.00   0.00
    11   8     0.00  -0.01   0.00     0.00   0.00  -0.01     0.01   0.01   0.00
    12   8     0.01   0.02   0.00    -0.01  -0.01   0.00     0.00   0.01   0.00
    13   1     0.35   0.05  -0.11     0.09  -0.04   0.00     0.37   0.05  -0.26
    14   1     0.34  -0.33   0.03     0.22  -0.15   0.08    -0.35   0.40  -0.10
    15   1    -0.11  -0.21   0.16     0.16   0.26  -0.31    -0.12   0.05   0.03
    16   1     0.18   0.04  -0.08     0.46   0.09  -0.34     0.08  -0.04  -0.01
    17   1     0.41  -0.16  -0.11    -0.02   0.18  -0.11     0.39   0.23  -0.35
    18   1    -0.12  -0.03   0.32     0.02   0.00  -0.04     0.08   0.02  -0.25
    19   1    -0.10   0.01  -0.03     0.36  -0.05   0.11     0.09  -0.02   0.04
    20   1    -0.01  -0.15   0.01    -0.02  -0.35   0.02     0.01   0.08  -0.01
    21   1    -0.11  -0.01   0.19     0.05   0.00  -0.09     0.00   0.00   0.01
    22   1    -0.07  -0.09  -0.09     0.08   0.09   0.09     0.00   0.01   0.00
    23   1    -0.09  -0.07  -0.18     0.05   0.04   0.09    -0.05  -0.03  -0.07
    24   1     0.08   0.05   0.07     0.06  -0.05  -0.02     0.14  -0.01   0.05
                    46                     47                     48
                     A                      A                      A
 Frequencies --  1366.0601              1381.5549              1401.6674
 Red. masses --     1.2300                 1.2331                 1.4316
 Frc consts  --     1.3523                 1.3868                 1.6572
 IR Inten    --     2.2786                11.5258                21.0316
  Atom  AN      X      Y      Z        X      Y      Z        X      Y      Z
     1   6    -0.03   0.01   0.00     0.02  -0.01  -0.01    -0.08   0.03   0.03
     2   6    -0.02   0.01   0.06     0.02   0.00  -0.01     0.03  -0.05   0.02
     3   6     0.00  -0.02   0.05    -0.01   0.00  -0.01     0.01   0.04  -0.04
     4   6     0.07   0.00  -0.02     0.00  -0.06   0.02    -0.05   0.00   0.03
     5   6    -0.01   0.02  -0.02     0.00  -0.04   0.00     0.11   0.02  -0.05
     6   6     0.01  -0.01   0.04     0.05   0.00   0.08     0.00   0.01   0.02
     7   8     0.00   0.01   0.01     0.00   0.00   0.00     0.01   0.00   0.00
     8   8    -0.01   0.00  -0.03     0.00   0.00   0.01     0.00   0.00   0.00
     9   8    -0.01  -0.02  -0.02     0.00   0.00   0.00     0.01   0.00   0.01
    10   8    -0.01  -0.01  -0.01    -0.01   0.02   0.02     0.01   0.00   0.00
    11   8    -0.01  -0.02  -0.01     0.00   0.01   0.00    -0.02  -0.02  -0.02
    12   8     0.01   0.02  -0.01     0.02   0.04  -0.02     0.00  -0.01   0.00
    13   1     0.34  -0.07  -0.10    -0.17   0.04   0.04     0.62  -0.08  -0.21
    14   1     0.25   0.01  -0.05    -0.14   0.00   0.05    -0.12   0.16  -0.06
    15   1     0.00   0.49  -0.26     0.01  -0.08   0.02     0.00  -0.25   0.14
    16   1    -0.37  -0.01   0.23     0.16   0.22  -0.27     0.18   0.04  -0.13
    17   1    -0.06  -0.19   0.15    -0.19   0.14  -0.05    -0.43  -0.14   0.29
    18   1     0.01   0.01  -0.05     0.01   0.00  -0.03    -0.02   0.00   0.03
    19   1     0.24  -0.03   0.08    -0.06   0.01  -0.02     0.03  -0.01   0.01
    20   1     0.00   0.09   0.00     0.00  -0.02   0.00     0.00  -0.02   0.00
    21   1     0.02   0.00  -0.03     0.12   0.02  -0.22    -0.04  -0.01   0.06
    22   1    -0.13  -0.15  -0.16    -0.21  -0.25  -0.25     0.05   0.04   0.05
    23   1    -0.17  -0.06  -0.16    -0.54  -0.16  -0.34    -0.06   0.01   0.04
    24   1     0.01   0.10   0.09    -0.06   0.17   0.11    -0.19   0.01  -0.09
                    49                     50                     51
                     A                      A                      A
 Frequencies --  1419.0635              1435.7236              1445.1242
 Red. masses --     1.4136                 1.8971                 1.4953
 Frc consts  --     1.6771                 2.3040                 1.8399
 IR Inten    --    46.0635                 4.4524                 0.6541
  Atom  AN      X      Y      Z        X      Y      Z        X      Y      Z
     1   6     0.01   0.00  -0.01     0.04   0.03  -0.04    -0.01   0.02  -0.01
     2   6    -0.04   0.00   0.02    -0.11  -0.05   0.10     0.05   0.04  -0.04
     3   6     0.05  -0.02  -0.01     0.14   0.03  -0.07     0.11  -0.10   0.01
     4   6    -0.02   0.04  -0.01    -0.10   0.05   0.01    -0.07  -0.03   0.07
     5   6    -0.04  -0.02  -0.01     0.07  -0.05   0.02    -0.01   0.04  -0.02
     6   6     0.15   0.03   0.01    -0.07  -0.01   0.01    -0.01  -0.01  -0.01
     7   8     0.00   0.00   0.00    -0.01   0.00  -0.01     0.00  -0.01   0.00
     8   8     0.00   0.00  -0.01    -0.01   0.00  -0.03     0.00  -0.01   0.02
     9   8    -0.01  -0.01   0.00    -0.02  -0.02   0.00    -0.04  -0.01  -0.01
    10   8     0.00  -0.01   0.00     0.01  -0.01  -0.01     0.01   0.01   0.00
    11   8     0.01   0.00   0.01     0.00   0.00   0.00     0.00  -0.01   0.00
    12   8    -0.04  -0.02   0.02     0.02   0.02  -0.01     0.00   0.00   0.00
    13   1    -0.09  -0.01   0.04    -0.21  -0.12   0.19     0.05  -0.08   0.04
    14   1     0.17  -0.02  -0.05     0.45   0.10  -0.22    -0.24  -0.07   0.14
    15   1    -0.15   0.12   0.01    -0.30  -0.02   0.18    -0.35   0.55  -0.15
    16   1     0.04  -0.06   0.04     0.22  -0.13  -0.03     0.29   0.15  -0.27
    17   1    -0.02   0.06  -0.08    -0.13   0.16  -0.03     0.06  -0.16   0.09
    18   1     0.00   0.00   0.00    -0.01   0.00   0.03    -0.03  -0.01   0.07
    19   1     0.07  -0.01   0.02     0.28  -0.03   0.09    -0.22   0.03  -0.06
    20   1     0.01   0.11   0.00     0.01   0.25  -0.01     0.01   0.33  -0.02
    21   1    -0.06  -0.01   0.11    -0.08  -0.01   0.14     0.05   0.01  -0.09
    22   1     0.22   0.25   0.27    -0.13  -0.14  -0.15     0.01   0.01   0.01
    23   1    -0.41  -0.09  -0.06     0.06   0.01  -0.05     0.15   0.03   0.07
    24   1    -0.53  -0.11  -0.43     0.22   0.05   0.20     0.00   0.00   0.00
                    52                     53                     54
                     A                      A                      A
 Frequencies --  1450.4653              1469.3441              1480.4146
 Red. masses --     1.8326                 1.7916                 1.0888
 Frc consts  --     2.2716                 2.2790                 1.4059
 IR Inten    --    19.9312                19.0021                 8.4630
  Atom  AN      X      Y      Z        X      Y      Z        X      Y      Z
     1   6    -0.02   0.04  -0.01    -0.02   0.19  -0.10     0.00   0.00   0.00
     2   6     0.07   0.03  -0.06     0.06  -0.09   0.05     0.00   0.00   0.00
     3   6    -0.03  -0.07   0.06    -0.04   0.01   0.00     0.00   0.00   0.00
     4   6    -0.06   0.15  -0.07     0.03  -0.03   0.01     0.00  -0.01   0.01
     5   6     0.08  -0.10   0.04    -0.05   0.02   0.00    -0.01   0.01   0.00
     6   6    -0.02   0.02   0.02     0.02  -0.01   0.00    -0.02   0.05   0.06
     7   8     0.00  -0.02  -0.01     0.00  -0.05  -0.02     0.00   0.00   0.00
     8   8     0.00   0.00   0.02    -0.01   0.01  -0.01     0.00   0.00   0.00
     9   8     0.01   0.01  -0.01     0.01   0.01   0.00     0.00   0.00   0.00
    10   8     0.02  -0.04  -0.02    -0.01   0.01   0.00     0.00   0.00   0.00
    11   8    -0.01   0.01  -0.01     0.02  -0.02   0.02     0.00   0.00   0.00
    12   8     0.01   0.01  -0.01     0.00   0.00   0.00     0.00   0.00   0.01
    13   1     0.03  -0.13   0.10    -0.06  -0.58   0.49     0.00  -0.01   0.00
    14   1    -0.29  -0.05   0.13    -0.16   0.22  -0.07     0.00   0.01   0.00
    15   1     0.08   0.22  -0.17     0.10  -0.03  -0.03     0.00  -0.01   0.00
    16   1     0.07  -0.40   0.27    -0.06   0.08  -0.02     0.00   0.02  -0.02
    17   1    -0.23   0.27  -0.09     0.09  -0.04  -0.03    -0.04  -0.01   0.03
    18   1    -0.05  -0.02   0.13    -0.15  -0.05   0.43     0.00   0.00   0.00
    19   1    -0.20   0.02  -0.06     0.07  -0.01   0.03     0.00   0.00   0.00
    20   1     0.00  -0.09   0.01     0.00  -0.07   0.00     0.00   0.00   0.00
    21   1    -0.21  -0.03   0.37     0.04   0.01  -0.08     0.02   0.00  -0.03
    22   1    -0.06  -0.07  -0.08     0.01   0.02   0.02     0.00   0.01   0.01
    23   1    -0.17  -0.03  -0.14     0.00  -0.01   0.02     0.26   0.04  -0.64
    24   1     0.08  -0.01   0.07    -0.04   0.01  -0.03     0.11  -0.67  -0.20
                    55                     56                     57
                     A                      A                      A
 Frequencies --  3035.5996              3038.0871              3038.7115
 Red. masses --     1.0822                 1.0806                 1.0817
 Frc consts  --     5.8755                 5.8765                 5.8848
 IR Inten    --     4.1334                 7.4405                72.1671
  Atom  AN      X      Y      Z        X      Y      Z        X      Y      Z
     1   6     0.01   0.02   0.03     0.01   0.01   0.02    -0.02  -0.04  -0.05
     2   6     0.00   0.00   0.01     0.00   0.00  -0.01     0.01   0.01   0.02
     3   6    -0.03  -0.03  -0.06     0.00   0.00  -0.01    -0.01  -0.02  -0.03
     4   6     0.01   0.01   0.01     0.01   0.01   0.01     0.00   0.01   0.01
     5   6     0.01   0.01   0.02    -0.03  -0.04  -0.05    -0.01  -0.01  -0.01
     6   6     0.00   0.00   0.00    -0.01   0.02   0.00     0.00   0.00   0.00
     7   8     0.00   0.00   0.00     0.00   0.00   0.00     0.00   0.00   0.00
     8   8     0.00   0.00   0.00     0.00   0.00   0.00     0.00   0.00   0.00
     9   8     0.00   0.00   0.00     0.00   0.00   0.00     0.00   0.00   0.00
    10   8     0.00   0.00   0.00     0.00   0.00   0.00     0.00   0.00   0.00
    11   8     0.00   0.00   0.00     0.00   0.00   0.00     0.00   0.00   0.00
    12   8     0.00   0.00   0.00     0.00   0.00   0.00     0.00   0.00   0.00
    13   1    -0.16  -0.25  -0.34    -0.10  -0.17  -0.23     0.27   0.44   0.60
    14   1    -0.02  -0.04  -0.06     0.03   0.04   0.07    -0.10  -0.15  -0.24
    15   1     0.32   0.40   0.66     0.03   0.04   0.07     0.17   0.21   0.35
    16   1    -0.05  -0.07  -0.09    -0.09  -0.11  -0.16    -0.05  -0.07  -0.09
    17   1    -0.08  -0.13  -0.19     0.30   0.47   0.68     0.07   0.11   0.16
    18   1     0.00   0.00   0.00     0.00   0.00   0.00     0.00   0.00   0.00
    19   1     0.00   0.00   0.00     0.00   0.00   0.00     0.00   0.00   0.00
    20   1     0.00   0.00   0.00     0.00   0.00   0.00     0.00   0.00   0.00
    21   1     0.00   0.00   0.00     0.00   0.00   0.00     0.00   0.00   0.00
    22   1     0.00   0.00   0.00     0.00   0.00   0.00     0.00   0.00   0.00
    23   1    -0.01   0.05   0.00     0.04  -0.24   0.02     0.01  -0.06   0.00
    24   1    -0.01  -0.01   0.02     0.04   0.04  -0.08     0.01   0.01  -0.02
                    58                     59                     60
                     A                      A                      A
 Frequencies --  3057.3803              3060.0580              3069.3301
 Red. masses --     1.0682                 1.0839                 1.0846
 Frc consts  --     5.8829                 5.9798                 6.0204
 IR Inten    --    83.5412                16.6709               149.5746
  Atom  AN      X      Y      Z        X      Y      Z        X      Y      Z
     1   6     0.00   0.00   0.00    -0.01  -0.01  -0.02     0.00  -0.01  -0.01
     2   6     0.00   0.00  -0.01    -0.02  -0.03  -0.05    -0.01  -0.02  -0.03
     3   6     0.00   0.00   0.00     0.00   0.00   0.00    -0.01  -0.01  -0.02
     4   6     0.01   0.01   0.01     0.02   0.02   0.03    -0.03  -0.04  -0.05
     5   6    -0.01  -0.01  -0.01     0.01   0.01   0.01    -0.01  -0.01  -0.01
     6   6     0.03  -0.06  -0.01     0.00   0.01   0.00     0.00   0.00   0.00
     7   8     0.00   0.00   0.00     0.00   0.00   0.00     0.00   0.00   0.00
     8   8     0.00   0.00   0.00     0.00   0.00   0.00     0.00   0.00   0.00
     9   8     0.00   0.00   0.00     0.00   0.00   0.00     0.00   0.00   0.00
    10   8     0.00   0.00   0.00     0.00   0.00   0.00     0.00   0.00   0.00
    11   8     0.00   0.00   0.00     0.00   0.00   0.00     0.00   0.00   0.00
    12   8     0.00   0.00   0.00     0.00   0.00   0.00     0.00   0.00   0.00
    13   1     0.01   0.02   0.03     0.07   0.13   0.17     0.04   0.06   0.08
    14   1     0.04   0.06   0.09     0.26   0.41   0.64     0.15   0.24   0.38
    15   1     0.00   0.00   0.01     0.03   0.04   0.06     0.10   0.13   0.21
    16   1    -0.07  -0.09  -0.12    -0.19  -0.26  -0.36     0.33   0.44   0.60
    17   1     0.09   0.13   0.18    -0.06  -0.09  -0.13     0.06   0.10   0.13
    18   1     0.00   0.00   0.00     0.00   0.00   0.00     0.00   0.00   0.00
    19   1     0.00   0.00   0.00     0.00   0.00   0.00     0.00   0.00   0.00
    20   1     0.00   0.00   0.00     0.00   0.00   0.00     0.00   0.00   0.00
    21   1     0.00   0.00   0.00     0.00   0.00   0.00     0.00   0.00   0.00
    22   1     0.00   0.00  -0.01     0.00   0.00   0.00     0.00   0.00   0.00
    23   1    -0.18   0.87  -0.07     0.03  -0.14   0.01    -0.01   0.03   0.00
    24   1    -0.14  -0.13   0.26     0.02   0.02  -0.04     0.00   0.00   0.01
                    61                     62                     63
                     A                      A                      A
 Frequencies --  3143.8079              3850.4283              3852.2559
 Red. masses --     1.0990                 1.0659                 1.0663
 Frc consts  --     6.3998                 9.3110                 9.3229
 IR Inten    --    17.6729                98.3655               102.9094
  Atom  AN      X      Y      Z        X      Y      Z        X      Y      Z
     1   6     0.00   0.00   0.00     0.00   0.00   0.00     0.00   0.00   0.00
     2   6     0.00   0.00   0.00     0.00   0.00   0.00     0.00   0.00   0.00
     3   6     0.00   0.00   0.00     0.00   0.00   0.00     0.00   0.00   0.00
     4   6     0.00   0.00   0.00     0.00   0.00   0.00     0.00   0.00   0.00
     5   6     0.00   0.00   0.00     0.00   0.00   0.00     0.00   0.00   0.00
     6   6     0.03   0.05  -0.07     0.00   0.00   0.00     0.00   0.00   0.00
     7   8     0.00   0.00   0.00     0.00   0.00   0.00     0.00   0.00   0.00
     8   8     0.00   0.00   0.00     0.00   0.00   0.00     0.00   0.00   0.00
     9   8     0.00   0.00   0.00     0.00   0.00   0.00     0.00   0.00   0.00
    10   8     0.00   0.00   0.00     0.00  -0.01   0.00    -0.02   0.06  -0.01
    11   8     0.00   0.00   0.00     0.00   0.00   0.00     0.00   0.00   0.00
    12   8     0.00   0.00   0.00    -0.03  -0.02   0.05     0.00   0.00   0.01
    13   1     0.00   0.00   0.00     0.00   0.00   0.00     0.00   0.00   0.00
    14   1     0.00   0.00   0.00     0.00   0.00   0.00     0.00   0.00   0.00
    15   1     0.00   0.00   0.00     0.00   0.00   0.00     0.00   0.00   0.00
    16   1     0.00   0.00   0.00     0.00   0.00   0.00     0.00   0.00   0.00
    17   1     0.00   0.00   0.01     0.00   0.00   0.00     0.00   0.00   0.00
    18   1     0.00   0.00   0.00     0.00   0.00   0.00     0.00  -0.01   0.00
    19   1     0.00   0.00   0.00     0.00   0.00   0.00     0.00   0.00   0.00
    20   1     0.00   0.00   0.00     0.00   0.00   0.00    -0.02   0.00   0.00
    21   1     0.00   0.00   0.00    -0.04   0.10  -0.02     0.35  -0.90   0.20
    22   1     0.01   0.01  -0.01     0.47   0.31  -0.82     0.05   0.04  -0.09
    23   1     0.07  -0.31   0.02     0.00   0.00   0.00     0.00   0.00   0.00
    24   1    -0.43  -0.35   0.77     0.00   0.01  -0.01     0.00   0.00   0.00
                    64                     65                     66
                     A                      A                      A
 Frequencies --  3861.4452              3870.4768              3872.1327
 Red. masses --     1.0663                 1.0665                 1.0666
 Frc consts  --     9.3677                 9.4132                 9.4219
 IR Inten    --   116.8726                84.1950               165.0235
  Atom  AN      X      Y      Z        X      Y      Z        X      Y      Z
     1   6     0.00   0.00   0.00     0.00   0.00   0.00     0.00   0.00   0.00
     2   6     0.00   0.00   0.00     0.00   0.00   0.00     0.00   0.00   0.00
     3   6     0.00   0.00   0.00     0.00   0.00   0.00     0.00   0.00   0.00
     4   6     0.00   0.00   0.00     0.00   0.00   0.00     0.00   0.00   0.00
     5   6     0.00   0.00   0.00     0.00   0.00   0.00     0.00   0.00   0.00
     6   6     0.00   0.00   0.00     0.00   0.00   0.00     0.00   0.00   0.00
     7   8     0.00   0.00   0.00     0.00  -0.02   0.00     0.01  -0.06   0.00
     8   8     0.00   0.00   0.00     0.02   0.02  -0.05    -0.01  -0.01   0.02
     9   8    -0.06   0.01   0.00     0.00   0.00   0.00     0.00   0.00   0.00
    10   8     0.00   0.00   0.00     0.00   0.00   0.00     0.00   0.00   0.00
    11   8     0.00   0.00   0.00     0.00   0.00   0.00     0.00   0.00   0.00
    12   8     0.00   0.00   0.00     0.00   0.00   0.00     0.00   0.00   0.00
    13   1     0.00   0.00   0.00     0.00   0.00   0.00     0.00   0.00   0.00
    14   1     0.00   0.00   0.00     0.00   0.00   0.00     0.00   0.00   0.00
    15   1     0.00   0.00   0.00     0.00   0.00   0.00     0.00   0.00   0.00
    16   1     0.00   0.00   0.00     0.00   0.00   0.00     0.00   0.00   0.00
    17   1     0.00   0.00   0.00     0.00   0.00   0.00     0.00   0.00   0.00
    18   1     0.00  -0.01   0.00    -0.03   0.36  -0.01    -0.09   0.93  -0.02
    19   1    -0.02  -0.02   0.04    -0.37  -0.32   0.79     0.14   0.12  -0.31
    20   1     0.99  -0.12   0.00    -0.04   0.00   0.00     0.03   0.00   0.00
    21   1     0.01  -0.02   0.00     0.00   0.00   0.00     0.00  -0.01   0.00
    22   1     0.00   0.00  -0.01     0.00   0.00   0.00     0.00   0.00   0.00
    23   1     0.00   0.00   0.00     0.00   0.00   0.00     0.00   0.00   0.00
    24   1     0.00   0.00   0.00     0.00   0.00   0.00     0.00   0.00   0.00

 -------------------
 - Thermochemistry -
 -------------------
 Temperature   298.150 Kelvin.  Pressure   1.00000 Atm.
 Atom     1 has atomic number  6 and mass  12.00000
 Atom     2 has atomic number  6 and mass  12.00000
 Atom     3 has atomic number  6 and mass  12.00000
 Atom     4 has atomic number  6 and mass  12.00000
 Atom     5 has atomic number  6 and mass  12.00000
 Atom     6 has atomic number  6 and mass  12.00000
 Atom     7 has atomic number  8 and mass  15.99491
 Atom     8 has atomic number  8 and mass  15.99491
 Atom     9 has atomic number  8 and mass  15.99491
 Atom    10 has atomic number  8 and mass  15.99491
 Atom    11 has atomic number  8 and mass  15.99491
 Atom    12 has atomic number  8 and mass  15.99491
 Atom    13 has atomic number  1 and mass   1.00783
 Atom    14 has atomic number  1 and mass   1.00783
 Atom    15 has atomic number  1 and mass   1.00783
 Atom    16 has atomic number  1 and mass   1.00783
 Atom    17 has atomic number  1 and mass   1.00783
 Atom    18 has atomic number  1 and mass   1.00783
 Atom    19 has atomic number  1 and mass   1.00783
 Atom    20 has atomic number  1 and mass   1.00783
 Atom    21 has atomic number  1 and mass   1.00783
 Atom    22 has atomic number  1 and mass   1.00783
 Atom    23 has atomic number  1 and mass   1.00783
 Atom    24 has atomic number  1 and mass   1.00783
 Molecular mass:   180.06339 amu.
 Principal axes and moments of inertia in atomic units:
                           1         2         3
     Eigenvalues --  1521.885102202.973433370.25102
           X            0.97533  -0.07074   0.20910
           Y           -0.07644   0.78039   0.62060
           Z           -0.20708  -0.62128   0.75573
 This molecule is an asymmetric top.
 Rotational symmetry number  1.
 Warning -- assumption of classical behavior for rotation
           may cause significant error
 Rotational temperatures (Kelvin)      0.05691     0.03932     0.02570
 Rotational constants (GHZ):           1.18586     0.81923     0.53549
[...]
 ! Name  Definition              Value          Relative Weight (%)             !
 --------------------------------------------------------------------------------
 ! R1    R(1,2)                 -0.0156                  0.5                    !
 ! R4    R(1,13)                -0.2429                  7.1                    !
 ! R5    R(2,3)                 -0.0224                  0.7                    !
 ! R6    R(2,8)                 -0.0209                  0.6                    !
 ! R7    R(2,14)                 0.8757                 25.5                    !
 ! R8    R(3,4)                  0.0162                  0.5                    !
 ! R10   R(3,15)                -0.0853                  2.5                    !
 ! R12   R(4,10)                 0.012                   0.3                    !
 ! R13   R(4,16)                -0.5222                 15.2                    !
 ! R16   R(5,17)                 0.1836                  5.3                    !
 ! R18   R(6,23)                 0.1513                  4.4                    !
 ! R19   R(6,24)                 0.0483                  1.4                    !
 ! A3    A(2,1,13)              -0.0183                  0.5                    !
 ! A7    A(1,2,3)                0.0185                  0.5                    !
 ! A8    A(1,2,8)                0.0198                  0.6                    !
 ! A10   A(3,2,8)                0.0214                  0.6                    !
 ! A11   A(3,2,14)              -0.0164                  0.5                    !
 ! A12   A(8,2,14)              -0.0328                  1.0                    !
 ! A14   A(2,3,9)                0.0108                  0.3                    !
 ! A15   A(2,3,15)              -0.0219                  0.6                    !
 ! A17   A(4,3,15)               0.0164                  0.5                    !
 ! A19   A(3,4,5)               -0.0123                  0.4                    !
 ! A20   A(3,4,10)              -0.015                   0.4                    !
 ! A21   A(3,4,16)               0.0125                  0.4                    !
 ! A24   A(10,4,16)              0.0191                  0.6                    !
 ! A38   A(2,8,19)               0.0153                  0.4                    !
 ! D1    D(7,1,2,3)             -0.0249                  0.7                    !
 ! D2    D(7,1,2,8)              0.0257                  0.7                    !
 ! D4    D(11,1,2,3)            -0.0213                  0.6                    !
 ! D5    D(11,1,2,8)             0.0293                  0.9                    !
 ! D7    D(13,1,2,3)            -0.023                   0.7                    !
 ! D8    D(13,1,2,8)             0.0275                  0.8                    !
 ! D10   D(2,1,7,18)            -0.0125                  0.4                    !
 ! D13   D(2,1,11,5)             0.0151                  0.4                    !
 ! D16   D(1,2,3,4)              0.0119                  0.3                    !
 ! D17   D(1,2,3,9)              0.0159                  0.5                    !
 ! D18   D(1,2,3,15)             0.0198                  0.6                    !
 ! D19   D(8,2,3,4)             -0.0355                  1.0                    !
 ! D20   D(8,2,3,9)             -0.0315                  0.9                    !
 ! D21   D(8,2,3,15)            -0.0276                  0.8                    !
 ! D25   D(1,2,8,19)            -0.0283                  0.8                    !
 ! D26   D(3,2,8,19)             0.0195                  0.6                    !
 ! D29   D(2,3,4,10)            -0.0324                  0.9                    !
 ! D32   D(9,3,4,10)            -0.0242                  0.7                    !
 ! D34   D(15,3,4,5)             0.0135                  0.4                    !
 ! D35   D(15,3,4,10)           -0.0168                  0.5                    !
 ! D37   D(2,3,9,20)             0.0154                  0.4                    !
 ! D38   D(4,3,9,20)             0.0129                  0.4                    !
 ! D40   D(3,4,5,6)             -0.0165                  0.5                    !
 ! D41   D(3,4,5,11)            -0.0144                  0.4                    !
 ! D42   D(3,4,5,17)            -0.0182                  0.5                    !
 ! D43   D(10,4,5,6)             0.0155                  0.5                    !
 ! D44   D(10,4,5,11)            0.0176                  0.5                    !
 ! D45   D(10,4,5,17)            0.0139                  0.4                    !
 ! D49   D(3,4,10,21)            0.0225                  0.7                    !
 ! D61   D(4,5,11,1)             0.011                   0.3                    !
 --------------------------------------------------------------------------------
                           ----------------------------
                           ! Normal Mode    60        !
 --------------------------                            --------------------------
 ! Name  Definition              Value          Relative Weight (%)             !
 --------------------------------------------------------------------------------
 ! R4    R(1,13)                -0.1197                  3.7                    !
 ! R6    R(2,8)                 -0.0128                  0.4                    !
 ! R7    R(2,14)                 0.5089                 15.8                    !
 ! R8    R(3,4)                 -0.0163                  0.5                    !
 ! R10   R(3,15)                -0.2897                  9.0                    !
 ! R11   R(4,5)                 -0.0177                  0.6                    !
 ! R12   R(4,10)                -0.0207                  0.6                    !
 ! R13   R(4,16)                 0.8788                 27.3                    !
 ! R16   R(5,17)                -0.187                   5.8                    !
 ! R18   R(6,23)                -0.0378                  1.2                    !
 ! A3    A(2,1,13)              -0.0113                  0.4                    !
 ! A8    A(1,2,8)                0.0119                  0.4                    !
 ! A12   A(8,2,14)              -0.0194                  0.6                    !
 ! A17   A(4,3,15)              -0.0162                  0.5                    !
 ! A18   A(9,3,15)               0.0116                  0.4                    !
 ! A19   A(3,4,5)                0.0169                  0.5                    !
 ! A20   A(3,4,10)               0.0194                  0.6                    !
 ! A22   A(5,4,10)               0.0194                  0.6                    !
 ! A23   A(5,4,16)              -0.0153                  0.5                    !
 ! A24   A(10,4,16)             -0.033                   1.0                    !
 ! A27   A(4,5,17)              -0.0197                  0.6                    !
 ! D2    D(7,1,2,8)              0.0159                  0.5                    !
 ! D5    D(11,1,2,8)             0.0166                  0.5                    !
 ! D8    D(13,1,2,8)             0.0174                  0.5                    !
 ! D16   D(1,2,3,4)              0.0266                  0.8                    !
 ! D17   D(1,2,3,9)              0.0163                  0.5                    !
 ! D21   D(8,2,3,15)            -0.0176                  0.5                    !
 ! D22   D(14,2,3,4)             0.0209                  0.6                    !
 ! D23   D(14,2,3,9)             0.0106                  0.3                    !
 ! D25   D(1,2,8,19)            -0.0171                  0.5                    !
 ! D28   D(2,3,4,5)             -0.0301                  0.9                    !
 ! D29   D(2,3,4,10)             0.0169                  0.5                    !
 ! D30   D(2,3,4,16)            -0.0169                  0.5                    !
 ! D31   D(9,3,4,5)             -0.0238                  0.7                    !
 ! D32   D(9,3,4,10)             0.0232                  0.7                    !
 ! D33   D(9,3,4,16)            -0.0106                  0.3                    !
 ! D34   D(15,3,4,5)            -0.0163                  0.5                    !
 ! D35   D(15,3,4,10)            0.0307                  1.0                    !
 ! D38   D(4,3,9,20)            -0.0119                  0.4                    !
 ! D40   D(3,4,5,6)              0.0165                  0.5                    !
 ! D41   D(3,4,5,11)             0.019                   0.6                    !
 ! D42   D(3,4,5,17)             0.018                   0.6                    !
 ! D43   D(10,4,5,6)            -0.0291                  0.9                    !
 ! D44   D(10,4,5,11)           -0.0266                  0.8                    !
 ! D45   D(10,4,5,17)           -0.0277                  0.9                    !
 ! D47   D(16,4,5,11)            0.0105                  0.3                    !
 ! D49   D(3,4,10,21)           -0.0286                  0.9                    !
 ! D50   D(5,4,10,21)            0.0162                  0.5                    !
 ! D52   D(4,5,6,12)             0.0122                  0.4                    !
 ! D53   D(4,5,6,23)             0.0144                  0.4                    !
 ! D54   D(4,5,6,24)             0.0134                  0.4                    !
 ! D61   D(4,5,11,1)            -0.0101                  0.3                    !
 --------------------------------------------------------------------------------
                           ----------------------------
                           ! Normal Mode    61        !
 --------------------------                            --------------------------
 ! Name  Definition              Value          Relative Weight (%)             !
 --------------------------------------------------------------------------------
 ! R14   R(5,6)                  0.0187                  0.8                    !
 ! R18   R(6,23)                 0.3728                 16.6                    !
 ! R19   R(6,24)                -1.0299                 45.9                    !
 ! R24   R(12,22)               -0.015                   0.7                    !
 ! A25   A(4,5,6)               -0.0224                  1.0                    !
 ! A28   A(6,5,11)               0.029                   1.3                    !
 ! A31   A(5,6,12)              -0.0172                  0.8                    !
 ! A32   A(5,6,23)              -0.0336                  1.5                    !
 ! A33   A(5,6,24)               0.0302                  1.3                    !
 ! A34   A(12,6,23)             -0.0416                  1.9                    !
 ! A35   A(12,6,24)              0.0443                  2.0                    !
 ! A36   A(23,6,24)              0.0211                  0.9                    !
 ! A42   A(6,12,22)              0.0376                  1.7                    !
 ! D40   D(3,4,5,6)             -0.0224                  1.0                    !
 ! D43   D(10,4,5,6)            -0.0223                  1.0                    !
 ! D46   D(16,4,5,6)            -0.0225                  1.0                    !
 ! D52   D(4,5,6,12)             0.0557                  2.5                    !
 ! D53   D(4,5,6,23)            -0.0315                  1.4                    !
 ! D55   D(11,5,6,12)            0.0497                  2.2                    !
 ! D56   D(11,5,6,23)           -0.0374                  1.7                    !
 ! D57   D(11,5,6,24)           -0.0141                  0.6                    !
 ! D58   D(17,5,6,12)            0.0384                  1.7                    !
 ! D59   D(17,5,6,23)           -0.0488                  2.2                    !
 ! D60   D(17,5,6,24)           -0.0255                  1.1                    !
 ! D64   D(5,6,12,22)           -0.0482                  2.1                    !
 ! D65   D(23,6,12,22)           0.036                   1.6                    !
 --------------------------------------------------------------------------------
                           ----------------------------
                           ! Normal Mode    62        !
 --------------------------                            --------------------------
 ! Name  Definition              Value          Relative Weight (%)             !
 --------------------------------------------------------------------------------
 ! R17   R(6,12)                 0.0203                  1.5                    !
 ! R23   R(10,21)                0.1217                  8.8                    !
 ! R24   R(12,22)               -1.0529                 76.1                    !
 ! A35   A(12,6,24)              0.0212                  1.5                    !
 ! D52   D(4,5,6,12)             0.0183                  1.3                    !
 ! D55   D(11,5,6,12)            0.0186                  1.3                    !
 ! D58   D(17,5,6,12)            0.0193                  1.4                    !
 --------------------------------------------------------------------------------
                           ----------------------------
                           ! Normal Mode    63        !
 --------------------------                            --------------------------
 ! Name  Definition              Value          Relative Weight (%)             !
 --------------------------------------------------------------------------------
 ! R12   R(4,10)                 0.021                   1.5                    !
 ! R22   R(9,20)                 0.0257                  1.8                    !
 ! R23   R(10,21)               -1.0528                 74.9                    !
 ! R24   R(12,22)               -0.1216                  8.6                    !
 ! A22   A(5,4,10)               0.0211                  1.5                    !
 ! D29   D(2,3,4,10)             0.0181                  1.3                    !
 ! D32   D(9,3,4,10)             0.0181                  1.3                    !
 --------------------------------------------------------------------------------
                           ----------------------------
                           ! Normal Mode    64        !
 --------------------------                            --------------------------
 ! Name  Definition              Value          Relative Weight (%)             !
 --------------------------------------------------------------------------------
 ! R9    R(3,9)                  0.0218                  1.6                    !
 ! R21   R(8,19)                 0.0486                  3.6                    !
 ! R22   R(9,20)                -1.0588                 79.5                    !
 ! R23   R(10,21)               -0.0248                  1.9                    !
 ! A16   A(4,3,9)                0.0213                  1.6                    !
 ! D17   D(1,2,3,9)             -0.02                    1.5                    !
 ! D20   D(8,2,3,9)             -0.0199                  1.5                    !
 ! D23   D(14,2,3,9)            -0.0194                  1.5                    !
 --------------------------------------------------------------------------------
                           ----------------------------
                           ! Normal Mode    65        !
 --------------------------                            --------------------------
 ! Name  Definition              Value          Relative Weight (%)             !
 --------------------------------------------------------------------------------
 ! R6    R(2,8)                 -0.0206                  1.3                    !
 ! R20   R(7,18)                -0.386                  23.6                    !
 ! R21   R(8,19)                 0.9868                 60.4                    !
 ! R22   R(9,20)                 0.0413                  2.5                    !
 ! A10   A(3,2,8)               -0.0198                  1.2                    !
 ! A38   A(2,8,19)              -0.0111                  0.7                    !
 ! D2    D(7,1,2,8)             -0.0173                  1.1                    !
 ! D5    D(11,1,2,8)            -0.0193                  1.2                    !
 ! D8    D(13,1,2,8)            -0.0185                  1.1                    !
 --------------------------------------------------------------------------------
                           ----------------------------
                           ! Normal Mode    66        !
 --------------------------                            --------------------------
 ! Name  Definition              Value          Relative Weight (%)             !
 --------------------------------------------------------------------------------
 ! R2    R(1,7)                  0.0216                  1.3                    !
 ! R20   R(7,18)                -0.9877                 61.0                    !
 ! R21   R(8,19)                -0.3851                 23.8                    !
 ! R22   R(9,20)                -0.0273                  1.7                    !
 ! A1    A(2,1,7)                0.0193                  1.2                    !
 ! A5    A(7,1,13)              -0.0122                  0.8                    !
 ! A37   A(1,7,18)               0.0141                  0.9                    !
 ! D2    D(7,1,2,8)              0.0125                  0.8                    !
 ! D14   D(7,1,11,5)            -0.0207                  1.3                    !
 --------------------------------------------------------------------------------
 -------------------------------------------------------------------
 Center     Atomic                   Forces (Hartrees/Bohr)
 Number     Number              X              Y              Z
 -------------------------------------------------------------------
      1        6           0.000004877   -0.000000689   -0.000015642
      2        6           0.000003309    0.000004097   -0.000003815
      3        6          -0.000003092   -0.000008743   -0.000010134
      4        6          -0.000005006   -0.000009312    0.000021884
      5        6           0.000000977   -0.000005014    0.000005135
      6        6          -0.000012958   -0.000015238   -0.000003448
      7        8          -0.000010220    0.000012470    0.000014793
      8        8           0.000003403    0.000015148   -0.000006973
      9        8           0.000008449    0.000002571   -0.000005519
     10        8           0.000016476   -0.000000811   -0.000014034
     11        8          -0.000005238    0.000002164   -0.000003495
     12        8           0.000017079    0.000004052    0.000016051
     13        1          -0.000001359    0.000002520    0.000007233
     14        1          -0.000004887    0.000008221   -0.000006518
     15        1           0.000003865    0.000000102   -0.000002183
     16        1          -0.000001356    0.000003868   -0.000001673
     17        1           0.000007054   -0.000004223    0.000007030
     18        1          -0.000005987   -0.000003577   -0.000000300
     19        1          -0.000006582   -0.000007324   -0.000003406
     20        1          -0.000001352    0.000000364   -0.000015402
     21        1           0.000002685   -0.000004340   -0.000004666
     22        1          -0.000014576    0.000006164    0.000011025
     23        1           0.000003664    0.000001203    0.000006793
     24        1           0.000000775   -0.000003672    0.000007264
 -------------------------------------------------------------------
 Cartesian Forces:  Max     0.000021884 RMS     0.000008170

 This type of calculation cannot be archived.


 LIFE IS SO UNCERTAIN - EAT DESSERT FIRST.
 Job cpu time:  0 days  0 hours  0 minutes  0.3 seconds.
 File lengths (MBytes):  RWF=      5 Int=      0 D2E=      0 Chk=     21 Scr=      1
 Normal termination of Gaussian 09 at Mon Dec 12 23:11:06 2011.
