'c1041-ib c1042-ib'
 Entering Gaussian System, Link 0=g09
 Initial command:
 /usr/common/usg/g09/b11/g09/l1.exe /global/scratch/sd/hmayes/g09/1279484.cvrsvc09-ib/Gau-17092.inp -scrdir=/global/scratch/sd/hmayes/g09/1279484.cvrsvc09-ib/
 Entering Link 1 = /usr/common/usg/g09/b11/g09/l1.exe PID=     17093.
  
 Copyright (c) 1988,1990,1992,1993,1995,1998,2003,2009,2010,
            Gaussian, Inc.  All Rights Reserved.
  
 This is part of the Gaussian(R) 09 program.  It is based on
 the Gaussian(R) 03 system (copyright 2003, Gaussian, Inc.),
 the Gaussian(R) 98 system (copyright 1998, Gaussian, Inc.),
 the Gaussian(R) 94 system (copyright 1995, Gaussian, Inc.),
 the Gaussian 92(TM) system (copyright 1992, Gaussian, Inc.),
 the Gaussian 90(TM) system (copyright 1990, Gaussian, Inc.),
 the Gaussian 88(TM) system (copyright 1988, Gaussian, Inc.),
 the Gaussian 86(TM) system (copyright 1986, Carnegie Mellon
 University), and the Gaussian 82(TM) system (copyright 1983,
 Carnegie Mellon University). Gaussian is a federally registered
 trademark of Gaussian, Inc.
  
 This software contains proprietary and confidential information,
 including trade secrets, belonging to Gaussian, Inc.
  
 This software is provided under written license and may be
 used, copied, transmitted, or stored only in accord with that
 written license.
  
 The following legend is applicable only to US Government
 contracts under FAR:
  
                    RESTRICTED RIGHTS LEGEND
  
 Use, reproduction and disclosure by the US Government is
 subject to restrictions as set forth in subparagraphs (a)
 and (c) of the Commercial Computer Software - Restricted
 Rights clause in FAR 52.227-19.
  
 Gaussian, Inc.
 340 Quinnipiac St., Bldg. 40, Wallingford CT 06492
  
  
 ---------------------------------------------------------------
 Warning -- This program may not be used in any manner that
 competes with the business of Gaussian, Inc. or will provide
 assistance to any competitor of Gaussian, Inc.  The licensee
 of this program is prohibited from giving any competitor of
 Gaussian, Inc. access to this program.  By using this program,
 the user acknowledges that Gaussian, Inc. is engaged in the
 business of creating and licensing software in the field of
 computational chemistry and represents and warrants to the
 licensee that it is not a competitor of Gaussian, Inc. and that
 it will not use this program in any manner prohibited above.
 ---------------------------------------------------------------
  

 Cite this work as:
 Gaussian 09, Revision B.01,
 M. J. Frisch, G. W. Trucks, H. B. Schlegel, G. E. Scuseria, 
 M. A. Robb, J. R. Cheeseman, G. Scalmani, V. Barone, B. Mennucci, 
 G. A. Petersson, H. Nakatsuji, M. Caricato, X. Li, H. P. Hratchian, 
 A. F. Izmaylov, J. Bloino, G. Zheng, J. L. Sonnenberg, M. Hada, 
 M. Ehara, K. Toyota, R. Fukuda, J. Hasegawa, M. Ishida, T. Nakajima, 
 Y. Honda, O. Kitao, H. Nakai, T. Vreven, J. A. Montgomery, Jr., 
 J. E. Peralta, F. Ogliaro, M. Bearpark, J. J. Heyd, E. Brothers, 
 K. N. Kudin, V. N. Staroverov, T. Keith, R. Kobayashi, J. Normand, 
 K. Raghavachari, A. Rendell, J. C. Burant, S. S. Iyengar, J. Tomasi, 
 M. Cossi, N. Rega, J. M. Millam, M. Klene, J. E. Knox, J. B. Cross, 
 V. Bakken, C. Adamo, J. Jaramillo, R. Gomperts, R. E. Stratmann, 
 O. Yazyev, A. J. Austin, R. Cammi, C. Pomelli, J. W. Ochterski, 
 R. L. Martin, K. Morokuma, V. G. Zakrzewski, G. A. Voth, 
 P. Salvador, J. J. Dannenberg, S. Dapprich, A. D. Daniels, 
 O. Farkas, J. B. Foresman, J. V. Ortiz, J. Cioslowski, 
 and D. J. Fox, Gaussian, Inc., Wallingford CT, 2010.
 
 ******************************************
 Gaussian 09:  EM64L-G09RevB.01 12-Aug-2010
                 1-Oct-2011 
 ******************************************
 %chk=/global/u1/h/hmayes/gaussian/glucose/m-glucose_waterm062xsp.chk
 %mem=16GB
 %nprocshared=8
 Will use up to    8 processors via shared memory.
 %nproclinda=2
 Will use up to    2 processors via Linda.
 ----------------------------------------------------------------------
 # m062x/6-311+g(3df,2p) nosymm scrf=(solvent=water) scf=(xqc,maxcycle=
 1000) geom=allcheck guess=read
 ----------------------------------------------------------------------
 1/29=7,38=1/1;
 2/12=2,15=1,40=1/2;
 3/5=4,6=6,7=216,11=2,14=-4,16=1,25=1,30=1,70=2201,72=1,74=-55,116=-2/1,2,3;
 4/5=1/1;
 5/5=2,7=1000,8=3,13=1,38=6,53=1/2,8;
 6/7=2,8=2,9=2,10=2,28=1/1;
 99/5=1,9=1/99;
 ---------------------------------------------
 m-glucosem062x from b-glucosem062x add methyl
 ---------------------------------------------
 Redundant internal coordinates taken from checkpoint file:
 /global/u1/h/hmayes/gaussian/glucose/m-glucose_waterm062xsp.chk
 Charge =  0 Multiplicity = 1
 C,0,0.0807094614,0.3665858797,0.2481105154
 C,0,-0.517537601,1.7266333898,-0.0960540298
 C,0,0.0250177127,2.1870166978,-1.4371988103
 C,0,1.5449069886,2.1712125781,-1.4293785145
 C,0,2.0369820477,0.7896074256,-1.0083588546
 C,0,3.5444901136,0.7286541636,-0.8564348624
 O,0,-0.3592602151,0.0137866492,1.5059519444
 O,0,-1.9202571874,1.6616911306,-0.2083867371
 O,0,-0.3804983926,3.5028707973,-1.749605305
 O,0,2.0616753034,2.4544870629,-2.7101625748
 O,0,1.4915092514,0.457056217,0.2594431171
 O,0,3.9677913527,-0.5625881648,-0.4723277588
 H,0,-0.2284154721,-0.3883692559,-0.4993181613
 H,0,-0.2141420087,2.437515282,0.6864934942
 H,0,-0.3256883716,1.4890622285,-2.2141245496
 H,0,1.8995363041,2.9118780982,-0.695275215
 H,0,1.7163578406,0.0476731145,-1.7577480218
 H,0,-2.2826603994,1.4119619745,0.6488021872
 H,0,-1.342816594,3.521584927,-1.796773739
 H,0,1.6340739821,3.2591847898,-3.0258366382
 H,0,3.4872016495,-0.7964488606,0.3300707146
 H,0,4.0176099786,0.9577117899,-1.8130543405
 H,0,3.8583411712,1.4816552607,-0.1195125853
 C,0,-0.0778960362,-1.3328475595,1.8573793552
 H,0,-0.5335514292,-1.5078331656,2.8315802064
 H,0,-0.512253758,-2.0192548612,1.1210435083
 H,0,1.0009556767,-1.5022179292,1.9216445712
 Recover connectivity data from disk.
                          Input orientation:                          
 ---------------------------------------------------------------------
 Center     Atomic      Atomic             Coordinates (Angstroms)
 Number     Number       Type             X           Y           Z
 ---------------------------------------------------------------------
      1          6           0        0.080709    0.366586    0.248111
      2          6           0       -0.517538    1.726633   -0.096054
      3          6           0        0.025018    2.187017   -1.437199
      4          6           0        1.544907    2.171213   -1.429379
      5          6           0        2.036982    0.789607   -1.008359
      6          6           0        3.544490    0.728654   -0.856435
      7          8           0       -0.359260    0.013787    1.505952
      8          8           0       -1.920257    1.661691   -0.208387
      9          8           0       -0.380498    3.502871   -1.749605
     10          8           0        2.061675    2.454487   -2.710163
     11          8           0        1.491509    0.457056    0.259443
     12          8           0        3.967791   -0.562588   -0.472328
     13          1           0       -0.228415   -0.388369   -0.499318
     14          1           0       -0.214142    2.437515    0.686493
     15          1           0       -0.325688    1.489062   -2.214125
     16          1           0        1.899536    2.911878   -0.695275
     17          1           0        1.716358    0.047673   -1.757748
     18          1           0       -2.282660    1.411962    0.648802
     19          1           0       -1.342817    3.521585   -1.796774
     20          1           0        1.634074    3.259185   -3.025837
     21          1           0        3.487202   -0.796449    0.330071
     22          1           0        4.017610    0.957712   -1.813054
     23          1           0        3.858341    1.481655   -0.119513
     24          6           0       -0.077896   -1.332848    1.857379
     25          1           0       -0.533551   -1.507833    2.831580
     26          1           0       -0.512254   -2.019255    1.121044
     27          1           0        1.000956   -1.502218    1.921645
 ---------------------------------------------------------------------
                    Distance matrix (angstroms):
                    1          2          3          4          5
     1  C    0.000000
     2  C    1.525149   0.000000
     3  C    2.481398   1.518219   0.000000
     4  C    2.866099   2.495813   1.519992   0.000000
     5  C    2.363190   2.869824   2.486897   1.525853   0.000000
     6  C    3.653613   4.251378   3.853673   2.531318   1.516370
     7  O    1.378479   2.350600   3.678687   4.110536   3.558881
     8  O    2.426841   1.408708   2.360093   3.709150   4.130403
     9  O    3.746981   2.430644   1.411918   2.362847   3.708835
    10  O    4.127340   3.743751   2.416599   1.409859   2.380876
    11  O    1.413743   2.403013   2.832306   2.406928   1.419666
    12  O    4.061010   5.049781   4.902731   3.776239   2.417393
    13  H    1.106420   2.172429   2.752537   3.249791   2.603609
    14  H    2.137257   1.099901   2.151747   2.764432   3.264305
    15  H    2.736369   2.139969   1.101703   2.140159   2.743232
    16  H    3.267510   2.757919   2.142357   1.101479   2.149638
    17  H    2.607781   3.251219   2.745938   2.155607   1.102203
    18  H    2.615126   1.941517   3.205852   4.421037   4.668278
    19  H    4.020199   2.606796   1.944566   3.208961   4.416824
    20  H    4.636680   3.944841   2.502474   1.933989   3.214244
    21  H    3.600494   4.752417   4.900105   3.959190   2.531819
    22  H    4.482970   4.909877   4.194431   2.781016   2.144454
    23  H    3.955885   4.382794   4.114389   2.746492   2.141571
    24  C    2.345842   3.656448   4.822269   5.070967   4.146080
    25  H    3.250397   4.362691   5.673305   6.000928   5.160524
    26  H    2.608803   3.938659   4.952372   5.319453   4.350019
    27  H    2.672077   4.099074   5.083772   5.001933   3.861442
                    6          7          8          9         10
     6  C    0.000000
     7  O    4.618568   0.000000
     8  O    5.581576   2.844514   0.000000
     9  O    4.888718   4.772087   2.852395   0.000000
    10  O    2.934884   5.439997   4.768983   2.825950   0.000000
    11  O    2.352377   2.274999   3.648309   4.100936   3.624000
    12  O    1.412101   4.792617   6.299698   6.088269   4.212354
    13  H    3.950961   2.049380   2.673895   4.090000   4.267807
    14  H    4.407737   2.562622   2.076907   2.664063   4.088631
    15  H    4.171310   4.002066   2.568158   2.067416   2.622519
    16  H    2.738305   4.283281   4.048561   2.580590   2.072503
    17  H    2.148992   3.867955   4.269724   4.041691   2.611339
    18  H    6.057089   2.527661   0.963573   3.707085   5.589522
    19  H    5.707054   4.917319   2.513089   0.963655   3.682871
    20  H    3.841820   5.919721   4.808667   2.397217   0.964381
    21  H    1.933136   4.102980   5.964310   6.145592   4.673727
    22  H    1.091527   5.573490   6.191027   5.081852   2.621225
    23  H    1.099349   4.752361   5.782085   4.970943   3.299375
    24  C    4.973556   1.419891   4.077860   6.040371   6.307464
    25  H    5.935803   2.025585   4.605457   6.791012   7.290137
    26  H    5.283805   2.074806   4.159233   6.225099   6.427878
    27  H    4.377680   2.078763   4.804252   6.359041   6.183387
                   11         12         13         14         15
    11  O    0.000000
    12  O    2.776173   0.000000
    13  H    2.061214   4.199909   0.000000
    14  H    2.648365   5.275609   3.064633   0.000000
    15  H    3.238176   5.067257   2.544557   3.053783   0.000000
    16  H    2.665356   4.049605   3.931693   2.569424   3.046791
    17  H    2.070558   2.663396   2.357100   3.925875   2.540833
    18  H    3.912519   6.650107   2.962988   2.309101   3.468722
    19  H    4.653253   6.829142   4.267672   2.935256   2.310818
    20  H    4.320337   5.154861   4.812153   4.227581   2.762767
    21  H    2.357764   0.964106   3.828867   4.928033   5.121974
    22  H    3.305614   2.027644   4.643982   5.132766   4.394022
    23  H    2.606780   2.077351   4.510302   4.260098   4.679055
    24  C    2.867087   4.731640   2.543368   3.950338   4.960012
    25  H    3.818056   5.663160   3.527207   4.502132   5.872285
    26  H    3.299930   4.973079   2.316446   4.487817   4.844217
    27  H    2.615781   3.926337   2.934804   4.303900   5.273739
                   16         17         18         19         20
    16  H    0.000000
    17  H    3.060404   0.000000
    18  H    4.641881   4.862604   0.000000
    19  H    3.478203   4.629053   3.363727   0.000000
    20  H    2.371204   3.453784   5.679438   3.231304   0.000000
    21  H    4.162175   2.864859   6.186273   6.818941   5.580713
    22  H    3.091024   2.475276   6.779416   5.942044   3.528295
    23  H    2.492781   3.054212   6.189270   5.833229   4.068623
    24  C    5.333290   4.265481   3.722314   6.206317   6.918338
    25  H    6.155686   5.342623   4.043403   6.882704   7.856996
    26  H    5.782025   4.186447   3.889807   6.316993   7.047359
    27  H    5.209603   4.056093   4.571073   6.675215   6.895605
                   21         22         23         24         25
    21  H    0.000000
    22  H    2.819822   0.000000
    23  H    2.351516   1.779878   0.000000
    24  C    3.915395   5.957509   5.227188   0.000000
    25  H    4.788536   6.954467   6.077393   1.089637   0.000000
    26  H    4.256352   6.163678   5.735630   1.096363   1.785481
    27  H    3.035233   5.394389   4.608088   1.093955   1.784020
                   26         27
    26  H    0.000000
    27  H    1.788321   0.000000
 Symmetry turned off by external request.
 Stoichiometry    C7H14O6
 Framework group  C1[X(C7H14O6)]
 Deg. of freedom    75
 Full point group                 C1      NOp   1
 Rotational constants (GHZ):      0.8178966      0.7843169      0.4169422
 Standard basis: 6-311+G(3df,2p) (5D, 7F)
 Integral buffers will be    131072 words long.
 Raffenetti 2 integral format.
 Two-electron integral symmetry is turned off.
   633 basis functions,   908 primitive gaussians,   711 cartesian basis functions
    52 alpha electrons       52 beta electrons
       nuclear repulsion energy       942.0249896125 Hartrees.
 NAtoms=   27 NActive=   27 NUniq=   27 SFac= 1.00D+00 NAtFMM=   50 NAOKFM=F Big=F
 ------------------------------------------------------------------------------
 Polarizable Continuum Model (PCM)
 =================================
 Model                : PCM.
 Atomic radii         : UFF (Universal Force Field).
 Polarization charges : Total charges.
 Charge compensation  : None.
 Solution method      : Matrix inversion.
 Cavity type          : Scaled VdW (van der Waals Surface) (Alpha=1.100).
 Cavity algorithm     : GePol (No added spheres)
                        Default sphere list used, NSphG=   27.
                        Lebedev-Laikov grids with approx.  5.0 points / Ang**2.
                        Smoothing algorithm: Karplus/York (Gamma=1.0000).
                        Polarization charges: spherical gaussians, with
                                              point-specific exponents (IZeta= 3).
                        Self-potential: point-specific (ISelfS= 7).
                        Self-field    : sphere-specific E.n sum rule (ISelfD= 2).
 Solvent              : Water, Eps=  78.355300 Eps(inf)=   1.777849
 ------------------------------------------------------------------------------
 One-electron integrals computed using PRISM.
 NBasis=   633 RedAO= T  NBF=   633
 NBsUse=   633 1.00D-06 NBFU=   633
 Initial guess read from the checkpoint file:  /global/u1/h/hmayes/gaussian/glucose/m-glucose_waterm062xsp.chk
 B after Tr=     0.000000    0.000000    0.000000
         Rot=    1.000000    0.000000    0.000000    0.000000 Ang=   0.00 deg.
 Requested convergence on RMS density matrix=1.00D-08 within 128 cycles.
 Requested convergence on MAX density matrix=1.00D-06.
 Requested convergence on             energy=1.00D-06.
 No special actions if energy rises.
 Error on total polarization charges =  0.01329
 SCF Done:  E(RM062X) =  -726.494360573     A.U. after   12 cycles
             Convg  =    0.1938D-08             -V/T =  2.0037
 QCSCF skips out because SCF is already converged.

 **********************************************************************

            Population analysis using the SCF density.

 **********************************************************************

 Alpha  occ. eigenvalues --  -19.65015 -19.65004 -19.64184 -19.64046 -19.63809
 Alpha  occ. eigenvalues --  -19.63101 -10.64999 -10.60220 -10.60137 -10.60092
 Alpha  occ. eigenvalues --  -10.59997 -10.58866 -10.58300  -1.22429  -1.18126
 Alpha  occ. eigenvalues --   -1.17154  -1.15977  -1.14926  -1.14591  -0.89944
 Alpha  occ. eigenvalues --   -0.88699  -0.81494  -0.77158  -0.72537  -0.71826
 Alpha  occ. eigenvalues --   -0.68751  -0.64441  -0.62356  -0.61168  -0.59920
 Alpha  occ. eigenvalues --   -0.58561  -0.57251  -0.55780  -0.54254  -0.53229
 Alpha  occ. eigenvalues --   -0.51713  -0.50788  -0.50365  -0.49349  -0.47291
 Alpha  occ. eigenvalues --   -0.46409  -0.45096  -0.44017  -0.42730  -0.41600
 Alpha  occ. eigenvalues --   -0.40754  -0.38336  -0.37101  -0.36862  -0.36388
 Alpha  occ. eigenvalues --   -0.35559  -0.34374
 Alpha virt. eigenvalues --    0.01417   0.01586   0.01918   0.02201   0.03817
 Alpha virt. eigenvalues --    0.04037   0.04930   0.05067   0.05138   0.06352
 Alpha virt. eigenvalues --    0.07568   0.08032   0.08247   0.08545   0.08852
 Alpha virt. eigenvalues --    0.09879   0.11211   0.11750   0.12176   0.12572
 Alpha virt. eigenvalues --    0.13746   0.13845   0.14330   0.15285   0.15749
 Alpha virt. eigenvalues --    0.16304   0.17524   0.17854   0.18448   0.19057
 Alpha virt. eigenvalues --    0.19417   0.19704   0.20067   0.20264   0.21126
 Alpha virt. eigenvalues --    0.21506   0.21980   0.22525   0.23453   0.23574
 Alpha virt. eigenvalues --    0.24222   0.24269   0.24665   0.25009   0.25740
 Alpha virt. eigenvalues --    0.26487   0.26739   0.26829   0.26956   0.27330
 Alpha virt. eigenvalues --    0.27700   0.28571   0.29247   0.29711   0.30247
 Alpha virt. eigenvalues --    0.30278   0.31152   0.31890   0.32065   0.32156
 Alpha virt. eigenvalues --    0.32838   0.33084   0.33640   0.34312   0.34611
 Alpha virt. eigenvalues --    0.35091   0.35832   0.36307   0.36481   0.37203
 Alpha virt. eigenvalues --    0.38162   0.38501   0.39499   0.40003   0.40670
 Alpha virt. eigenvalues --    0.41202   0.41832   0.42187   0.43217   0.43940
 Alpha virt. eigenvalues --    0.44974   0.45583   0.46384   0.47165   0.48619
 Alpha virt. eigenvalues --    0.49581   0.50434   0.52048   0.53426   0.54019
 Alpha virt. eigenvalues --    0.54395   0.54744   0.55944   0.56343   0.57077
 Alpha virt. eigenvalues --    0.57792   0.58049   0.58652   0.59712   0.60388
 Alpha virt. eigenvalues --    0.60769   0.61837   0.62702   0.63614   0.64676
 Alpha virt. eigenvalues --    0.65323   0.65485   0.65559   0.66011   0.66852
 Alpha virt. eigenvalues --    0.67843   0.68132   0.68917   0.70029   0.70617
 Alpha virt. eigenvalues --    0.72055   0.72669   0.73259   0.74134   0.74332
 Alpha virt. eigenvalues --    0.75104   0.75726   0.76770   0.77418   0.78469
 Alpha virt. eigenvalues --    0.79384   0.80567   0.82378   0.83156   0.84477
 Alpha virt. eigenvalues --    0.85698   0.86180   0.87382   0.88570   0.89896
 Alpha virt. eigenvalues --    0.90850   0.91652   0.92267   0.94190   0.94776
 Alpha virt. eigenvalues --    0.97006   0.97895   0.99820   0.99916   1.01016
 Alpha virt. eigenvalues --    1.01828   1.02240   1.03770   1.04280   1.04402
 Alpha virt. eigenvalues --    1.05720   1.06144   1.07250   1.07874   1.08220
 Alpha virt. eigenvalues --    1.08667   1.09264   1.09987   1.10874   1.11635
 Alpha virt. eigenvalues --    1.12029   1.12798   1.13079   1.13960   1.14513
 Alpha virt. eigenvalues --    1.15194   1.16250   1.17434   1.18218   1.18678
 Alpha virt. eigenvalues --    1.19395   1.20434   1.20858   1.21502   1.22017
 Alpha virt. eigenvalues --    1.22633   1.23122   1.24019   1.25667   1.25824
 Alpha virt. eigenvalues --    1.26233   1.27517   1.29200   1.29732   1.30292
 Alpha virt. eigenvalues --    1.30664   1.31904   1.32169   1.32631   1.35179
 Alpha virt. eigenvalues --    1.35862   1.36503   1.37379   1.37461   1.38559
 Alpha virt. eigenvalues --    1.39500   1.39759   1.41739   1.41909   1.42895
 Alpha virt. eigenvalues --    1.44189   1.44456   1.44626   1.45667   1.46699
 Alpha virt. eigenvalues --    1.47642   1.48144   1.49029   1.49965   1.50871
 Alpha virt. eigenvalues --    1.51378   1.52449   1.53617   1.54614   1.55163
 Alpha virt. eigenvalues --    1.56871   1.57206   1.57925   1.58575   1.60573
 Alpha virt. eigenvalues --    1.61976   1.63122   1.63500   1.64341   1.66307
 Alpha virt. eigenvalues --    1.67044   1.69631   1.70633   1.71000   1.71795
 Alpha virt. eigenvalues --    1.74260   1.74657   1.76076   1.77365   1.77827
 Alpha virt. eigenvalues --    1.78333   1.79200   1.82498   1.83494   1.85190
 Alpha virt. eigenvalues --    1.86161   1.86816   1.88816   1.89492   1.90529
 Alpha virt. eigenvalues --    1.91639   1.93477   1.94249   1.96924   1.98368
 Alpha virt. eigenvalues --    2.00228   2.01448   2.02355   2.03084   2.05308
 Alpha virt. eigenvalues --    2.06095   2.07526   2.09151   2.10314   2.11422
 Alpha virt. eigenvalues --    2.12540   2.13226   2.15678   2.16917   2.18435
 Alpha virt. eigenvalues --    2.19093   2.20852   2.23653   2.24711   2.26621
 Alpha virt. eigenvalues --    2.28874   2.30641   2.31554   2.34634   2.35823
 Alpha virt. eigenvalues --    2.37538   2.37734   2.39888   2.42157   2.44745
 Alpha virt. eigenvalues --    2.47253   2.48656   2.50152   2.52707   2.56558
 Alpha virt. eigenvalues --    2.59676   2.62821   2.75159   2.78989   2.80245
 Alpha virt. eigenvalues --    2.81370   2.83025   2.84313   2.86206   2.89370
 Alpha virt. eigenvalues --    2.91644   2.94256   2.94757   2.95868   2.97485
 Alpha virt. eigenvalues --    2.97781   2.99236   3.00849   3.01601   3.04474
 Alpha virt. eigenvalues --    3.05008   3.06603   3.06783   3.08717   3.09261
 Alpha virt. eigenvalues --    3.11023   3.12224   3.13799   3.14201   3.17136
 Alpha virt. eigenvalues --    3.17347   3.18619   3.19336   3.19748   3.21770
 Alpha virt. eigenvalues --    3.23424   3.24685   3.25387   3.26269   3.29698
 Alpha virt. eigenvalues --    3.30920   3.31863   3.32547   3.33145   3.35511
 Alpha virt. eigenvalues --    3.36413   3.37142   3.38724   3.40063   3.40565
 Alpha virt. eigenvalues --    3.42525   3.42874   3.44040   3.46160   3.46237
 Alpha virt. eigenvalues --    3.47121   3.49099   3.50963   3.52277   3.53297
 Alpha virt. eigenvalues --    3.55052   3.56211   3.57219   3.59874   3.61288
 Alpha virt. eigenvalues --    3.61955   3.63722   3.64569   3.65019   3.66262
 Alpha virt. eigenvalues --    3.67088   3.68929   3.71147   3.73696   3.74506
 Alpha virt. eigenvalues --    3.76008   3.78070   3.80366   3.81489   3.82399
 Alpha virt. eigenvalues --    3.84451   3.85459   3.87390   3.89187   3.89617
 Alpha virt. eigenvalues --    3.91581   3.93415   3.95219   3.96401   3.98340
 Alpha virt. eigenvalues --    3.99583   4.01340   4.04445   4.05039   4.06822
 Alpha virt. eigenvalues --    4.09261   4.10931   4.13981   4.14142   4.16609
 Alpha virt. eigenvalues --    4.18017   4.19473   4.21297   4.23931   4.25210
 Alpha virt. eigenvalues --    4.25867   4.26679   4.27990   4.28671   4.30637
 Alpha virt. eigenvalues --    4.32521   4.33245   4.35934   4.37124   4.38161
 Alpha virt. eigenvalues --    4.41062   4.42613   4.43334   4.44889   4.46501
 Alpha virt. eigenvalues --    4.47540   4.49437   4.51955   4.53784   4.54334
 Alpha virt. eigenvalues --    4.55994   4.56846   4.57827   4.58868   4.61723
 Alpha virt. eigenvalues --    4.62855   4.63939   4.66200   4.68601   4.71449
 Alpha virt. eigenvalues --    4.72814   4.75895   4.76818   4.80047   4.80844
 Alpha virt. eigenvalues --    4.82805   4.84106   4.86995   4.91593   4.95540
 Alpha virt. eigenvalues --    5.01856   5.03305   5.10482   5.20461   5.21576
 Alpha virt. eigenvalues --    5.24841   5.26123   5.29877   5.30720   5.34452
 Alpha virt. eigenvalues --    5.35667   5.37255   5.39556   5.40821   5.41618
 Alpha virt. eigenvalues --    5.42966   5.46145   5.46725   5.47708   5.48089
 Alpha virt. eigenvalues --    5.49485   5.49968   5.51163   5.52045   5.53061
 Alpha virt. eigenvalues --    5.54316   5.54690   5.56279   5.57204   5.57743
 Alpha virt. eigenvalues --    5.58560   5.58870   5.59994   5.61547   5.64235
 Alpha virt. eigenvalues --    5.65701   5.67481   5.68894   5.69311   5.70313
 Alpha virt. eigenvalues --    5.70609   5.72959   5.73667   5.77904   5.80236
 Alpha virt. eigenvalues --    5.83511   5.84711   5.86381   5.88026   5.89645
 Alpha virt. eigenvalues --    5.91590   5.92119   5.94889   5.97121   6.00131
 Alpha virt. eigenvalues --    6.00884   6.01979   6.03128   6.04712   6.17641
 Alpha virt. eigenvalues --    6.25092   6.50378   6.52866   6.53974   6.54934
 Alpha virt. eigenvalues --    6.56297   6.57499   6.61563   6.80808   7.09843
 Alpha virt. eigenvalues --    7.12532   7.15279   7.17203   7.23636   7.25320
 Alpha virt. eigenvalues --    7.26414   7.28904   7.29312   7.32230   7.39522
 Alpha virt. eigenvalues --    7.42682   7.50063   7.55092   7.58749   7.63930
 Alpha virt. eigenvalues --    7.68046   7.73219   7.81133   7.83103   7.87634
 Alpha virt. eigenvalues --    7.93209   7.94917   7.96800   7.98772   8.03206
 Alpha virt. eigenvalues --    8.09331   8.11090   8.19927   8.27050   8.28612
 Alpha virt. eigenvalues --    8.35425   8.40754   8.45762   8.49957   8.70598
 Alpha virt. eigenvalues --    8.73474   8.80061   8.95256  14.40125  14.42382
 Alpha virt. eigenvalues --   14.43461  14.44816  14.45410  14.46048  14.47095
 Alpha virt. eigenvalues --   14.47337  14.47720  14.48992  14.49469  14.50046
 Alpha virt. eigenvalues --   14.50703  14.51184  14.51666  14.52150  14.55345
 Alpha virt. eigenvalues --   14.61141  14.79280  14.80469  14.82634  14.84624
 Alpha virt. eigenvalues --   14.89226  14.95490  15.04313  15.06669  15.09229
 Alpha virt. eigenvalues --   15.10956  15.12956  15.19553  24.33699  24.40230
 Alpha virt. eigenvalues --   24.46685  24.54951  24.60038  24.63144  24.64166
 Alpha virt. eigenvalues --   50.30358  50.32844  50.34499  50.38165  50.39158
 Alpha virt. eigenvalues --   50.41331
          Condensed to atoms (all electrons):
              1          2          3          4          5          6
     1  C    6.743142  -1.525137  -0.571218   0.818304  -0.550081  -0.047168
     2  C   -1.525137  10.396320  -1.518992  -2.123817   0.422279   0.212129
     3  C   -0.571218  -1.518992   9.790597  -1.517436  -0.199406  -0.207497
     4  C    0.818304  -2.123817  -1.517436  10.662007  -1.812992  -0.549370
     5  C   -0.550081   0.422279  -0.199406  -1.812992   8.500335  -0.654439
     6  C   -0.047168   0.212129  -0.207497  -0.549370  -0.654439   6.296935
     7  O   -0.032597  -0.048403   0.033286   0.000224   0.005016  -0.004105
     8  O    0.087727  -0.250421  -0.015659   0.071681  -0.020383  -0.001948
     9  O    0.046234  -0.016534  -0.253190   0.054193   0.019662   0.004299
    10  O   -0.028678   0.108387  -0.067932  -0.162988   0.005817   0.026524
    11  O    0.108339  -0.197981   0.019868  -0.050132  -0.047391   0.015695
    12  O    0.001743   0.002939  -0.005625   0.000950  -0.090368   0.045508
    13  H    0.492224   0.016581  -0.041473  -0.011603   0.004400   0.001791
    14  H   -0.067838   0.595839  -0.046940  -0.051749   0.005118   0.000223
    15  H   -0.013131  -0.042618   0.555296  -0.065856  -0.013067  -0.000136
    16  H    0.009430  -0.017838  -0.012283   0.486972  -0.042456  -0.015884
    17  H   -0.013456   0.007628  -0.032492   0.013668   0.444496  -0.011548
    18  H   -0.004089  -0.000818  -0.060235  -0.000290   0.004839   0.000966
    19  H   -0.006811   0.053037  -0.042851  -0.073270   0.011930   0.000089
    20  H    0.004688  -0.002158   0.000388  -0.029827  -0.030648   0.001798
    21  H    0.007117  -0.006062  -0.003750   0.025082  -0.050515  -0.025250
    22  H    0.002972   0.001315  -0.004561   0.001486  -0.156130   0.546291
    23  H   -0.010258   0.000021  -0.001736  -0.027497   0.020154   0.461556
    24  C   -0.039460  -0.074815  -0.021588   0.038035  -0.007101  -0.011655
    25  H    0.003706   0.007362   0.000196  -0.000837   0.001251  -0.000034
    26  H    0.008460   0.001695  -0.004004  -0.000367  -0.000896   0.000535
    27  H    0.002038  -0.011925   0.001906   0.002869   0.003184  -0.002920
              7          8          9         10         11         12
     1  C   -0.032597   0.087727   0.046234  -0.028678   0.108339   0.001743
     2  C   -0.048403  -0.250421  -0.016534   0.108387  -0.197981   0.002939
     3  C    0.033286  -0.015659  -0.253190  -0.067932   0.019868  -0.005625
     4  C    0.000224   0.071681   0.054193  -0.162988  -0.050132   0.000950
     5  C    0.005016  -0.020383   0.019662   0.005817  -0.047391  -0.090368
     6  C   -0.004105  -0.001948   0.004299   0.026524   0.015695   0.045508
     7  O    8.983190  -0.002307  -0.000456  -0.000209  -0.030587  -0.000219
     8  O   -0.002307   8.652518   0.002862  -0.000578   0.015287  -0.000049
     9  O   -0.000456   0.002862   8.673078  -0.006657   0.001017   0.000036
    10  O   -0.000209  -0.000578  -0.006657   8.647705   0.014094   0.000456
    11  O   -0.030587   0.015287   0.001017   0.014094   9.077909  -0.007559
    12  O   -0.000219  -0.000049   0.000036   0.000456  -0.007559   8.617612
    13  H   -0.063577  -0.010995   0.000722   0.000397  -0.050798   0.000810
    14  H   -0.005843  -0.053043  -0.008810   0.000063  -0.006778  -0.000053
    15  H   -0.000037  -0.006973  -0.053429  -0.005984  -0.003269  -0.000018
    16  H    0.000008  -0.000294  -0.008499  -0.049366  -0.007493   0.000757
    17  H    0.000801   0.000171   0.000819  -0.012678  -0.041047  -0.007583
    18  H    0.007020   0.278955   0.001308   0.000060   0.001195   0.000003
    19  H    0.000114   0.005784   0.282652   0.002206   0.000205  -0.000001
    20  H    0.000013  -0.000002   0.010212   0.271867  -0.000811   0.000027
    21  H    0.000053  -0.000008   0.000000  -0.000103   0.022703   0.253435
    22  H    0.000059  -0.000008  -0.000035  -0.002000   0.013030  -0.048562
    23  H   -0.000151  -0.000015  -0.000001   0.000004  -0.024298  -0.050617
    24  C   -0.004480   0.002106   0.000310  -0.000446   0.016167  -0.000365
    25  H   -0.052686   0.000146  -0.000003   0.000000   0.001590   0.000014
    26  H   -0.055458   0.000184   0.000003   0.000000   0.001066   0.000179
    27  H   -0.033801  -0.000192   0.000001   0.000003  -0.010438  -0.001475
             13         14         15         16         17         18
     1  C    0.492224  -0.067838  -0.013131   0.009430  -0.013456  -0.004089
     2  C    0.016581   0.595839  -0.042618  -0.017838   0.007628  -0.000818
     3  C   -0.041473  -0.046940   0.555296  -0.012283  -0.032492  -0.060235
     4  C   -0.011603  -0.051749  -0.065856   0.486972   0.013668  -0.000290
     5  C    0.004400   0.005118  -0.013067  -0.042456   0.444496   0.004839
     6  C    0.001791   0.000223  -0.000136  -0.015884  -0.011548   0.000966
     7  O   -0.063577  -0.005843  -0.000037   0.000008   0.000801   0.007020
     8  O   -0.010995  -0.053043  -0.006973  -0.000294   0.000171   0.278955
     9  O    0.000722  -0.008810  -0.053429  -0.008499   0.000819   0.001308
    10  O    0.000397   0.000063  -0.005984  -0.049366  -0.012678   0.000060
    11  O   -0.050798  -0.006778  -0.003269  -0.007493  -0.041047   0.001195
    12  O    0.000810  -0.000053  -0.000018   0.000757  -0.007583   0.000003
    13  H    0.396357  -0.001400   0.003100   0.000030   0.000105   0.001150
    14  H   -0.001400   0.381206  -0.001005   0.003882   0.000065  -0.005540
    15  H    0.003100  -0.001005   0.375648  -0.001521   0.002778  -0.000016
    16  H    0.000030   0.003882  -0.001521   0.385560  -0.000705   0.000049
    17  H    0.000105   0.000065   0.002778  -0.000705   0.385483   0.000016
    18  H    0.001150  -0.005540  -0.000016   0.000049   0.000016   0.487377
    19  H   -0.000055   0.000714  -0.002693  -0.000031  -0.000019  -0.000588
    20  H   -0.000053  -0.000027   0.001013  -0.002548  -0.000014   0.000001
    21  H   -0.000212   0.000013  -0.000006  -0.000027   0.000624   0.000000
    22  H   -0.000055   0.000016  -0.000015   0.000602  -0.000454   0.000000
    23  H    0.000032  -0.000058  -0.000018   0.000695  -0.000895  -0.000002
    24  C   -0.004308  -0.004454  -0.000280  -0.000094  -0.000447   0.000341
    25  H    0.000140  -0.000038   0.000000   0.000000  -0.000003  -0.000055
    26  H    0.003213  -0.000107   0.000026   0.000002  -0.000014   0.000077
    27  H   -0.001178   0.000157  -0.000004  -0.000009   0.000087   0.000005
             19         20         21         22         23         24
     1  C   -0.006811   0.004688   0.007117   0.002972  -0.010258  -0.039460
     2  C    0.053037  -0.002158  -0.006062   0.001315   0.000021  -0.074815
     3  C   -0.042851   0.000388  -0.003750  -0.004561  -0.001736  -0.021588
     4  C   -0.073270  -0.029827   0.025082   0.001486  -0.027497   0.038035
     5  C    0.011930  -0.030648  -0.050515  -0.156130   0.020154  -0.007101
     6  C    0.000089   0.001798  -0.025250   0.546291   0.461556  -0.011655
     7  O    0.000114   0.000013   0.000053   0.000059  -0.000151  -0.004480
     8  O    0.005784  -0.000002  -0.000008  -0.000008  -0.000015   0.002106
     9  O    0.282652   0.010212   0.000000  -0.000035  -0.000001   0.000310
    10  O    0.002206   0.271867  -0.000103  -0.002000   0.000004  -0.000446
    11  O    0.000205  -0.000811   0.022703   0.013030  -0.024298   0.016167
    12  O   -0.000001   0.000027   0.253435  -0.048562  -0.050617  -0.000365
    13  H   -0.000055  -0.000053  -0.000212  -0.000055   0.000032  -0.004308
    14  H    0.000714  -0.000027   0.000013   0.000016  -0.000058  -0.004454
    15  H   -0.002693   0.001013  -0.000006  -0.000015  -0.000018  -0.000280
    16  H   -0.000031  -0.002548  -0.000027   0.000602   0.000695  -0.000094
    17  H   -0.000019  -0.000014   0.000624  -0.000454  -0.000895  -0.000447
    18  H   -0.000588   0.000001   0.000000   0.000000  -0.000002   0.000341
    19  H    0.493477  -0.001000   0.000000  -0.000002   0.000000  -0.000058
    20  H   -0.001000   0.492574   0.000017   0.000385  -0.000119   0.000057
    21  H    0.000000   0.000017   0.485010   0.005760  -0.003904   0.002965
    22  H   -0.000002   0.000385   0.005760   0.447103  -0.024012  -0.000177
    23  H    0.000000  -0.000119  -0.003904  -0.024012   0.445733   0.000392
    24  C   -0.000058   0.000057   0.002965  -0.000177   0.000392   5.090020
    25  H    0.000000   0.000000  -0.000024   0.000000   0.000000   0.424600
    26  H    0.000000   0.000000  -0.000110  -0.000001   0.000003   0.431216
    27  H    0.000000   0.000000   0.001597   0.000005  -0.000020   0.424069
             25         26         27
     1  C    0.003706   0.008460   0.002038
     2  C    0.007362   0.001695  -0.011925
     3  C    0.000196  -0.004004   0.001906
     4  C   -0.000837  -0.000367   0.002869
     5  C    0.001251  -0.000896   0.003184
     6  C   -0.000034   0.000535  -0.002920
     7  O   -0.052686  -0.055458  -0.033801
     8  O    0.000146   0.000184  -0.000192
     9  O   -0.000003   0.000003   0.000001
    10  O    0.000000   0.000000   0.000003
    11  O    0.001590   0.001066  -0.010438
    12  O    0.000014   0.000179  -0.001475
    13  H    0.000140   0.003213  -0.001178
    14  H   -0.000038  -0.000107   0.000157
    15  H    0.000000   0.000026  -0.000004
    16  H    0.000000   0.000002  -0.000009
    17  H   -0.000003  -0.000014   0.000087
    18  H   -0.000055   0.000077   0.000005
    19  H    0.000000   0.000000   0.000000
    20  H    0.000000   0.000000   0.000000
    21  H   -0.000024  -0.000110   0.001597
    22  H    0.000000  -0.000001   0.000005
    23  H    0.000000   0.000003  -0.000020
    24  C    0.424600   0.431216   0.424069
    25  H    0.466752  -0.016254  -0.018076
    26  H   -0.016254   0.463132  -0.022333
    27  H   -0.018076  -0.022333   0.463988
 Mulliken atomic charges:
              1
     1  C    0.573800
     2  C    0.011987
     3  C    0.227329
     4  C    0.302559
     5  C    0.227394
     6  C   -0.082385
     7  O   -0.694869
     8  O   -0.754544
     9  O   -0.749795
    10  O   -0.739964
    11  O   -0.829586
    12  O   -0.711974
    13  H    0.264655
    14  H    0.266387
    15  H    0.272215
    16  H    0.271063
    17  H    0.264613
    18  H    0.288268
    19  H    0.277172
    20  H    0.284166
    21  H    0.285594
    22  H    0.216989
    23  H    0.215009
    24  C   -0.260549
    25  H    0.182253
    26  H    0.189752
    27  H    0.202460
 Sum of Mulliken atomic charges =   0.00000
 Mulliken charges with hydrogens summed into heavy atoms:
              1
     1  C    0.838455
     2  C    0.278374
     3  C    0.499544
     4  C    0.573622
     5  C    0.492007
     6  C    0.349614
     7  O   -0.694869
     8  O   -0.466276
     9  O   -0.472623
    10  O   -0.455797
    11  O   -0.829586
    12  O   -0.426380
    24  C    0.313917
 Sum of Mulliken charges with hydrogens summed into heavy atoms =   0.00000
 Electronic spatial extent (au):  <R**2>=           3416.7228
 Charge=              0.0000 electrons
 Dipole moment (field-independent basis, Debye):
    X=             -3.3175    Y=             -0.6419    Z=              1.6834  Tot=              3.7751
 Quadrupole moment (field-independent basis, Debye-Ang):
   XX=            -90.5195   YY=            -76.3615   ZZ=            -78.4858
   XY=              1.8676   XZ=              4.7312   YZ=             -3.2996
 Traceless Quadrupole moment (field-independent basis, Debye-Ang):
   XX=             -8.7305   YY=              5.4275   ZZ=              3.3031
   XY=              1.8676   XZ=              4.7312   YZ=             -3.2996
 Octapole moment (field-independent basis, Debye-Ang**2):
  XXX=           -279.0155  YYY=           -253.2818  ZZZ=            115.6916  XYY=            -76.1158
  XXY=            -59.9090  XXZ=             61.7994  XZZ=            -85.0283  YZZ=            -84.8562
  YYZ=             37.9293  XYZ=             -0.6224
 Hexadecapole moment (field-independent basis, Debye-Ang**3):
 XXXX=          -2097.9326 YYYY=          -1507.8588 ZZZZ=           -949.7759 XXXY=            -43.5825
 XXXZ=            318.3519 YYYX=           -116.6198 YYYZ=            393.3244 ZZZX=            284.8794
 ZZZY=            391.6198 XXYY=           -527.2496 XXZZ=           -470.2510 YYZZ=           -358.8999
 XXYZ=            128.1282 YYXZ=            102.9746 ZZXY=            -60.4723
 N-N= 9.420249896125D+02 E-N=-3.588885598280D+03  KE= 7.238175000276D+02
 1\1\GINC-C1041\SP\RM062X\6-311+G(3df,2p)\C7H14O6\HMAYES\01-Oct-2011\0\
 \# m062x/6-311+g(3df,2p) nosymm scrf=(solvent=water) scf=(xqc,maxcycle
 =1000) geom=allcheck guess=read\\m-glucosem062x from b-glucosem062x ad
 d methyl\\0,1\C,0,0.0807094614,0.3665858797,0.2481105154\C,0,-0.517537
 601,1.7266333898,-0.0960540298\C,0,0.0250177127,2.1870166978,-1.437198
 8103\C,0,1.5449069886,2.1712125781,-1.4293785145\C,0,2.0369820477,0.78
 96074256,-1.0083588546\C,0,3.5444901136,0.7286541636,-0.8564348624\O,0
 ,-0.3592602151,0.0137866492,1.5059519444\O,0,-1.9202571874,1.661691130
 6,-0.2083867371\O,0,-0.3804983926,3.5028707973,-1.749605305\O,0,2.0616
 753034,2.4544870629,-2.7101625748\O,0,1.4915092514,0.457056217,0.25944
 31171\O,0,3.9677913527,-0.5625881648,-0.4723277588\H,0,-0.2284154721,-
 0.3883692559,-0.4993181613\H,0,-0.2141420087,2.437515282,0.6864934942\
 H,0,-0.3256883716,1.4890622285,-2.2141245496\H,0,1.8995363041,2.911878
 0982,-0.695275215\H,0,1.7163578406,0.0476731145,-1.7577480218\H,0,-2.2
 826603994,1.4119619745,0.6488021872\H,0,-1.342816594,3.521584927,-1.79
 6773739\H,0,1.6340739821,3.2591847898,-3.0258366382\H,0,3.4872016495,-
 0.7964488606,0.3300707146\H,0,4.0176099786,0.9577117899,-1.8130543405\
 H,0,3.8583411712,1.4816552607,-0.1195125853\C,0,-0.0778960362,-1.33284
 75595,1.8573793552\H,0,-0.5335514292,-1.5078331656,2.8315802064\H,0,-0
 .512253758,-2.0192548612,1.1210435083\H,0,1.0009556767,-1.5022179292,1
 .9216445712\\Version=EM64L-G09RevB.01\HF=-726.4943606\RMSD=1.938e-09\D
 ipole=-1.3051937,-0.2525545,0.6622947\Quadrupole=-6.4909463,4.0351791,
 2.4557673,1.3885455,3.5175439,-2.4531438\PG=C01 [X(C7H14O6)]\\@


 THE VALUE OF PHILOSOPHY IS, IN FACT, TO BE SOUGHT LARGELY IN ITS
 VERY UNCERTAINTY.  THE MAN WHO HAS NO TINCTURE OF PHILOSOPHY GOES
 THROUGH LIFE IMPRISONED IN THE PREJUDICES DERIVED FROM COMMON SENSE,
 FROM THE HABITUAL BELIEFS OF HIS AGE OR HIS NATION, AND FROM
 CONVICTIONS WHICH HAVE GROWN UP IN HIS MIND WITHOUT THE CO-OPERATION
 OR CONSENT OF HIS DELIBERATE REASON.  TO SUCH A MAN THE WORLD TENDS
 TO BE DEFINITE, FINITE, OBVIOUS; COMMON OBJECTS ROUSE NO QUESTIONS,
 AND UNFAMILIAR POSSIBILITIES ARE CONTEMPTUOUSLY REJECTED.

                             -- BERTRAND RUSSELL
 Job cpu time:  0 days  0 hours  0 minutes 13.6 seconds.
 File lengths (MBytes):  RWF=    480 Int=      0 D2E=      0 Chk=     26 Scr=      8
 Normal termination of Gaussian 09 at Sat Oct  1 20:52:54 2011.
