'c1426-ib c1427-ib'
 Entering Gaussian System, Link 0=g09
 Initial command:
 /usr/common/usg/g09/b11/g09/l1.exe /global/scratch/sd/hmayes/g09/2181493.cvrsvc09-ib/Gau-21958.inp -scrdir=/global/scratch/sd/hmayes/g09/2181493.cvrsvc09-ib/
 Entering Link 1 = /usr/common/usg/g09/b11/g09/l1.exe PID=     21959.
  
 Copyright (c) 1988,1990,1992,1993,1995,1998,2003,2009,2010,
            Gaussian, Inc.  All Rights Reserved.
  
 This is part of the Gaussian(R) 09 program.  It is based on
 the Gaussian(R) 03 system (copyright 2003, Gaussian, Inc.),
 the Gaussian(R) 98 system (copyright 1998, Gaussian, Inc.),
 the Gaussian(R) 94 system (copyright 1995, Gaussian, Inc.),
 the Gaussian 92(TM) system (copyright 1992, Gaussian, Inc.),
 the Gaussian 90(TM) system (copyright 1990, Gaussian, Inc.),
 the Gaussian 88(TM) system (copyright 1988, Gaussian, Inc.),
 the Gaussian 86(TM) system (copyright 1986, Carnegie Mellon
 University), and the Gaussian 82(TM) system (copyright 1983,
 Carnegie Mellon University). Gaussian is a federally registered
 trademark of Gaussian, Inc.
  
 This software contains proprietary and confidential information,
 including trade secrets, belonging to Gaussian, Inc.
  
 This software is provided under written license and may be
 used, copied, transmitted, or stored only in accord with that
 written license.
  
 The following legend is applicable only to US Government
 contracts under FAR:
  
                    RESTRICTED RIGHTS LEGEND
  
 Use, reproduction and disclosure by the US Government is
 subject to restrictions as set forth in subparagraphs (a)
 and (c) of the Commercial Computer Software - Restricted
 Rights clause in FAR 52.227-19.
  
 Gaussian, Inc.
 340 Quinnipiac St., Bldg. 40, Wallingford CT 06492
  
  
 ---------------------------------------------------------------
 Warning -- This program may not be used in any manner that
 competes with the business of Gaussian, Inc. or will provide
 assistance to any competitor of Gaussian, Inc.  The licensee
 of this program is prohibited from giving any competitor of
 Gaussian, Inc. access to this program.  By using this program,
 the user acknowledges that Gaussian, Inc. is engaged in the
 business of creating and licensing software in the field of
 computational chemistry and represents and warrants to the
 licensee that it is not a competitor of Gaussian, Inc. and that
 it will not use this program in any manner prohibited above.
 ---------------------------------------------------------------
  

 Cite this work as:
 Gaussian 09, Revision B.01,
 M. J. Frisch, G. W. Trucks, H. B. Schlegel, G. E. Scuseria, 
 M. A. Robb, J. R. Cheeseman, G. Scalmani, V. Barone, B. Mennucci, 
 G. A. Petersson, H. Nakatsuji, M. Caricato, X. Li, H. P. Hratchian, 
 A. F. Izmaylov, J. Bloino, G. Zheng, J. L. Sonnenberg, M. Hada, 
 M. Ehara, K. Toyota, R. Fukuda, J. Hasegawa, M. Ishida, T. Nakajima, 
 Y. Honda, O. Kitao, H. Nakai, T. Vreven, J. A. Montgomery, Jr., 
 J. E. Peralta, F. Ogliaro, M. Bearpark, J. J. Heyd, E. Brothers, 
 K. N. Kudin, V. N. Staroverov, T. Keith, R. Kobayashi, J. Normand, 
 K. Raghavachari, A. Rendell, J. C. Burant, S. S. Iyengar, J. Tomasi, 
 M. Cossi, N. Rega, J. M. Millam, M. Klene, J. E. Knox, J. B. Cross, 
 V. Bakken, C. Adamo, J. Jaramillo, R. Gomperts, R. E. Stratmann, 
 O. Yazyev, A. J. Austin, R. Cammi, C. Pomelli, J. W. Ochterski, 
 R. L. Martin, K. Morokuma, V. G. Zakrzewski, G. A. Voth, 
 P. Salvador, J. J. Dannenberg, S. Dapprich, A. D. Daniels, 
 O. Farkas, J. B. Foresman, J. V. Ortiz, J. Cioslowski, 
 and D. J. Fox, Gaussian, Inc., Wallingford CT, 2010.
 
 ******************************************
 Gaussian 09:  EM64L-G09RevB.01 12-Aug-2010
                10-Apr-2012 
 ******************************************
 %chk=/global/u1/h/hmayes/gaussian/glucose/alkeneNa3.chk
 %mem=16GB
 %nprocshared=8
 Will use up to    8 processors via shared memory.
 %nproclinda=2
 Will use up to    2 processors via Linda.
 ----------------------------------------------------------------------
 # opt m062x/6-31+g(2df,p) nosymm scrf=(solvent=ethanol) scf=(xqc,conve
 r=6,maxcycle=1000)
 ----------------------------------------------------------------------
 1/14=-1,18=20,19=15,26=3,38=1/1,3;
 2/9=110,12=2,15=1,17=6,18=5,40=1/2;
 3/5=1,6=6,7=114,11=2,16=1,25=1,30=1,70=2201,71=1,72=4,74=-55/1,2,3;
 4//1;
 5/5=2,6=6,7=1000,8=3,13=1,38=5,53=4/2,8;
 6/7=2,8=2,9=2,10=2,28=1/1;
 7/30=1/1,2,3,16;
 1/14=-1,18=20,19=15/3(2);
 2/9=110,15=1/2;
 99//99;
 2/9=110,15=1/2;
 3/5=1,6=6,7=114,11=2,16=1,25=1,30=1,70=2205,71=1,72=4,74=-55/1,2,3;
 4/5=5,16=3/1;
 5/5=2,6=6,7=1000,8=3,13=1,38=5,53=4/2,8;
 7/30=1/1,2,3,16;
 1/14=-1,18=20,19=15/3(-5);
 2/9=110,15=1/2;
 6/7=2,8=2,9=2,10=2,19=2,28=1/1;
 99/9=1/99;
 ----------------------------------
 alkeneNa3 from alkeneNad3f step 65
 ----------------------------------
 Symbolic Z-matrix:
 Charge =  1 Multiplicity = 1
 6                    -0.73859  -0.32219  -0.01982 
 6                     0.23637   0.29121  -0.6804 
 6                     0.12139   1.50865  -1.5568 
 6                     1.57821   1.97108  -1.62927 
 6                     2.3249    0.63499  -1.54332 
 6                     3.75373   0.72674  -1.06667 
 8                    -2.03896   0.08357  -0.02884 
 8                    -0.78327   2.43112  -0.98555 
 8                     1.92171   2.76006  -2.73329 
 8                     1.5582   -0.12651  -0.60317 
 8                     3.74196   1.24191   0.25678 
 1                    -0.56389  -1.20828   0.57966 
 1                    -0.21825   1.22707  -2.56595 
 1                     1.79789   2.56355  -0.73501 
 1                     2.30897   0.13632  -2.52335 
 1                    -2.08187   0.97913  -0.39691 
 1                    -1.00687   3.10016  -1.6419 
 1                     1.6621    2.31339  -3.54768 
 1                     4.63364   1.50187   0.50597 
 1                     4.2209   -0.26437  -1.0891 
 1                     4.29845   1.3906   -1.74695 
 11                    2.38519  -0.0037    1.68622 
 

 GradGradGradGradGradGradGradGradGradGradGradGradGradGradGradGradGradGrad
 Berny optimization.
 Initialization pass.
                           ----------------------------
                           !    Initial Parameters    !
                           ! (Angstroms and Degrees)  !
 --------------------------                            --------------------------
 ! Name  Definition              Value          Derivative Info.                !
 --------------------------------------------------------------------------------
 ! R1    R(1,2)                  1.3278         estimate D2E/DX2                !
 ! R2    R(1,7)                  1.3622         estimate D2E/DX2                !
 ! R3    R(1,12)                 1.084          estimate D2E/DX2                !
 ! R4    R(2,3)                  1.5045         estimate D2E/DX2                !
 ! R5    R(2,10)                 1.3884         estimate D2E/DX2                !
 ! R6    R(3,4)                  1.5302         estimate D2E/DX2                !
 ! R7    R(3,8)                  1.4127         estimate D2E/DX2                !
 ! R8    R(3,13)                 1.1014         estimate D2E/DX2                !
 ! R9    R(4,5)                  1.533          estimate D2E/DX2                !
 ! R10   R(4,9)                  1.3998         estimate D2E/DX2                !
 ! R11   R(4,14)                 1.095          estimate D2E/DX2                !
 ! R12   R(5,6)                  1.509          estimate D2E/DX2                !
 ! R13   R(5,10)                 1.4323         estimate D2E/DX2                !
 ! R14   R(5,15)                 1.0997         estimate D2E/DX2                !
 ! R15   R(6,11)                 1.4202         estimate D2E/DX2                !
 ! R16   R(6,20)                 1.0959         estimate D2E/DX2                !
 ! R17   R(6,21)                 1.0955         estimate D2E/DX2                !
 ! R18   R(7,16)                 0.9692         estimate D2E/DX2                !
 ! R19   R(8,17)                 0.9635         estimate D2E/DX2                !
 ! R20   R(9,18)                 0.9644         estimate D2E/DX2                !
 ! R21   R(10,22)                2.4373         estimate D2E/DX2                !
 ! R22   R(11,19)                0.9617         estimate D2E/DX2                !
 ! R23   R(11,22)                2.3315         estimate D2E/DX2                !
 ! A1    A(2,1,7)              124.0561         estimate D2E/DX2                !
 ! A2    A(2,1,12)             122.3031         estimate D2E/DX2                !
 ! A3    A(7,1,12)             113.64           estimate D2E/DX2                !
 ! A4    A(1,2,3)              127.4092         estimate D2E/DX2                !
 ! A5    A(1,2,10)             122.1662         estimate D2E/DX2                !
 ! A6    A(3,2,10)             110.4027         estimate D2E/DX2                !
 ! A7    A(2,3,4)              101.5009         estimate D2E/DX2                !
 ! A8    A(2,3,8)              109.9858         estimate D2E/DX2                !
 ! A9    A(2,3,13)             110.5137         estimate D2E/DX2                !
 ! A10   A(4,3,8)              115.5629         estimate D2E/DX2                !
 ! A11   A(4,3,13)             109.1152         estimate D2E/DX2                !
 ! A12   A(8,3,13)             109.8748         estimate D2E/DX2                !
 ! A13   A(3,4,5)              101.4015         estimate D2E/DX2                !
 ! A14   A(3,4,9)              116.1887         estimate D2E/DX2                !
 ! A15   A(3,4,14)             108.4121         estimate D2E/DX2                !
 ! A16   A(5,4,9)              114.579          estimate D2E/DX2                !
 ! A17   A(5,4,14)             109.1519         estimate D2E/DX2                !
 ! A18   A(9,4,14)             106.8533         estimate D2E/DX2                !
 ! A19   A(4,5,6)              115.2085         estimate D2E/DX2                !
 ! A20   A(4,5,10)             103.8534         estimate D2E/DX2                !
 ! A21   A(4,5,15)             109.7671         estimate D2E/DX2                !
 ! A22   A(6,5,10)             109.3795         estimate D2E/DX2                !
 ! A23   A(6,5,15)             108.8306         estimate D2E/DX2                !
 ! A24   A(10,5,15)            109.6397         estimate D2E/DX2                !
 ! A25   A(5,6,11)             107.9716         estimate D2E/DX2                !
 ! A26   A(5,6,20)             110.0094         estimate D2E/DX2                !
 ! A27   A(5,6,21)             108.149          estimate D2E/DX2                !
 ! A28   A(11,6,20)            110.5271         estimate D2E/DX2                !
 ! A29   A(11,6,21)            111.2816         estimate D2E/DX2                !
 ! A30   A(20,6,21)            108.8662         estimate D2E/DX2                !
 ! A31   A(1,7,16)             108.6637         estimate D2E/DX2                !
 ! A32   A(3,8,17)             109.0606         estimate D2E/DX2                !
 ! A33   A(4,9,18)             109.8097         estimate D2E/DX2                !
 ! A34   A(2,10,5)             108.2489         estimate D2E/DX2                !
 ! A35   A(2,10,22)            111.1082         estimate D2E/DX2                !
 ! A36   A(5,10,22)            114.088          estimate D2E/DX2                !
 ! A37   A(6,11,19)            109.3806         estimate D2E/DX2                !
 ! A38   A(6,11,22)            112.4798         estimate D2E/DX2                !
 ! A39   A(19,11,22)           121.6787         estimate D2E/DX2                !
 ! A40   A(10,22,11)            69.4189         estimate D2E/DX2                !
 ! D1    D(7,1,2,3)             -0.6224         estimate D2E/DX2                !
 ! D2    D(7,1,2,10)           177.5055         estimate D2E/DX2                !
 ! D3    D(12,1,2,3)           179.0546         estimate D2E/DX2                !
 ! D4    D(12,1,2,10)           -2.8174         estimate D2E/DX2                !
 ! D5    D(2,1,7,16)           -13.7341         estimate D2E/DX2                !
 ! D6    D(12,1,7,16)          166.5639         estimate D2E/DX2                !
 ! D7    D(1,2,3,4)            162.1949         estimate D2E/DX2                !
 ! D8    D(1,2,3,8)             39.3368         estimate D2E/DX2                !
 ! D9    D(1,2,3,13)           -82.1512         estimate D2E/DX2                !
 ! D10   D(10,2,3,4)           -16.1143         estimate D2E/DX2                !
 ! D11   D(10,2,3,8)          -138.9724         estimate D2E/DX2                !
 ! D12   D(10,2,3,13)           99.5395         estimate D2E/DX2                !
 ! D13   D(1,2,10,5)           173.3002         estimate D2E/DX2                !
 ! D14   D(1,2,10,22)          -60.6881         estimate D2E/DX2                !
 ! D15   D(3,2,10,5)            -8.2862         estimate D2E/DX2                !
 ! D16   D(3,2,10,22)          117.7254         estimate D2E/DX2                !
 ! D17   D(2,3,4,5)             32.0059         estimate D2E/DX2                !
 ! D18   D(2,3,4,9)            156.8987         estimate D2E/DX2                !
 ! D19   D(2,3,4,14)           -82.8203         estimate D2E/DX2                !
 ! D20   D(8,3,4,5)            150.9503         estimate D2E/DX2                !
 ! D21   D(8,3,4,9)            -84.1569         estimate D2E/DX2                !
 ! D22   D(8,3,4,14)            36.1241         estimate D2E/DX2                !
 ! D23   D(13,3,4,5)           -84.6736         estimate D2E/DX2                !
 ! D24   D(13,3,4,9)            40.2193         estimate D2E/DX2                !
 ! D25   D(13,3,4,14)          160.5003         estimate D2E/DX2                !
 ! D26   D(2,3,8,17)          -166.8073         estimate D2E/DX2                !
 ! D27   D(4,3,8,17)            79.0418         estimate D2E/DX2                !
 ! D28   D(13,3,8,17)          -44.9384         estimate D2E/DX2                !
 ! D29   D(3,4,5,6)           -157.7183         estimate D2E/DX2                !
 ! D30   D(3,4,5,10)           -38.1256         estimate D2E/DX2                !
 ! D31   D(3,4,5,15)            79.0342         estimate D2E/DX2                !
 ! D32   D(9,4,5,6)             76.3153         estimate D2E/DX2                !
 ! D33   D(9,4,5,10)          -164.0921         estimate D2E/DX2                !
 ! D34   D(9,4,5,15)           -46.9322         estimate D2E/DX2                !
 ! D35   D(14,4,5,6)           -43.4429         estimate D2E/DX2                !
 ! D36   D(14,4,5,10)           76.1498         estimate D2E/DX2                !
 ! D37   D(14,4,5,15)         -166.6904         estimate D2E/DX2                !
 ! D38   D(3,4,9,18)           -53.192          estimate D2E/DX2                !
 ! D39   D(5,4,9,18)            64.6608         estimate D2E/DX2                !
 ! D40   D(14,4,9,18)         -174.3075         estimate D2E/DX2                !
 ! D41   D(4,5,6,11)            62.3524         estimate D2E/DX2                !
 ! D42   D(4,5,6,20)          -176.9544         estimate D2E/DX2                !
 ! D43   D(4,5,6,21)           -58.1698         estimate D2E/DX2                !
 ! D44   D(10,5,6,11)          -54.1428         estimate D2E/DX2                !
 ! D45   D(10,5,6,20)           66.5504         estimate D2E/DX2                !
 ! D46   D(10,5,6,21)         -174.665          estimate D2E/DX2                !
 ! D47   D(15,5,6,11)         -173.9045         estimate D2E/DX2                !
 ! D48   D(15,5,6,20)          -53.2114         estimate D2E/DX2                !
 ! D49   D(15,5,6,21)           65.5732         estimate D2E/DX2                !
 ! D50   D(4,5,10,2)            29.3109         estimate D2E/DX2                !
 ! D51   D(4,5,10,22)          -94.9378         estimate D2E/DX2                !
 ! D52   D(6,5,10,2)           152.7992         estimate D2E/DX2                !
 ! D53   D(6,5,10,22)           28.5505         estimate D2E/DX2                !
 ! D54   D(15,5,10,2)          -87.9378         estimate D2E/DX2                !
 ! D55   D(15,5,10,22)         147.8135         estimate D2E/DX2                !
 ! D56   D(5,6,11,19)         -166.8717         estimate D2E/DX2                !
 ! D57   D(5,6,11,22)           54.7071         estimate D2E/DX2                !
 ! D58   D(20,6,11,19)          72.7593         estimate D2E/DX2                !
 ! D59   D(20,6,11,22)         -65.6619         estimate D2E/DX2                !
 ! D60   D(21,6,11,19)         -48.3313         estimate D2E/DX2                !
 ! D61   D(21,6,11,22)         173.2474         estimate D2E/DX2                !
 ! D62   D(2,10,22,11)        -123.7957         estimate D2E/DX2                !
 ! D63   D(5,10,22,11)          -1.0937         estimate D2E/DX2                !
 ! D64   D(6,11,22,10)         -29.0292         estimate D2E/DX2                !
 ! D65   D(19,11,22,10)       -161.6671         estimate D2E/DX2                !
 --------------------------------------------------------------------------------
 Trust Radius=3.00D-01 FncErr=1.00D-07 GrdErr=1.00D-06
 Number of steps in this run=    132 maximum allowed number of steps=    132.
 GradGradGradGradGradGradGradGradGradGradGradGradGradGradGradGradGradGrad

                          Input orientation:                          
 ---------------------------------------------------------------------
 Center     Atomic      Atomic             Coordinates (Angstroms)
 Number     Number       Type             X           Y           Z
 ---------------------------------------------------------------------
      1          6           0       -0.738594   -0.322193   -0.019822
      2          6           0        0.236365    0.291208   -0.680402
      3          6           0        0.121394    1.508650   -1.556799
      4          6           0        1.578211    1.971079   -1.629267
      5          6           0        2.324895    0.634993   -1.543323
      6          6           0        3.753734    0.726736   -1.066670
      7          8           0       -2.038959    0.083565   -0.028839
      8          8           0       -0.783270    2.431115   -0.985553
      9          8           0        1.921710    2.760064   -2.733285
     10          8           0        1.558199   -0.126506   -0.603169
     11          8           0        3.741962    1.241908    0.256780
     12          1           0       -0.563889   -1.208277    0.579664
     13          1           0       -0.218253    1.227073   -2.565954
     14          1           0        1.797892    2.563547   -0.735010
     15          1           0        2.308965    0.136317   -2.523348
     16          1           0       -2.081872    0.979126   -0.396906
     17          1           0       -1.006866    3.100159   -1.641895
     18          1           0        1.662100    2.313389   -3.547680
     19          1           0        4.633643    1.501872    0.505969
     20          1           0        4.220896   -0.264370   -1.089098
     21          1           0        4.298452    1.390604   -1.746954
     22         11           0        2.385190   -0.003702    1.686223
 ---------------------------------------------------------------------
                    Distance matrix (angstroms):
                    1          2          3          4          5
     1  C    0.000000
     2  C    1.327845   0.000000
     3  C    2.540446   1.504478   0.000000
     4  C    3.635519   2.350077   1.530166   0.000000
     5  C    3.552777   2.285777   2.370417   1.532987   0.000000
     6  C    4.730450   3.565217   3.747734   2.568619   1.509038
     7  O    1.362230   2.375868   3.005437   4.382693   4.651984
     8  O    2.918105   2.389974   1.412686   2.490501   3.632885
     9  O    4.892894   3.626288   2.488231   1.399766   2.468703
    10  O    2.377782   1.388415   2.376458   2.335196   1.432338
    11  O    4.753767   3.751180   4.058169   2.961534   2.369978
    12  H    1.083997   2.115804   3.523603   4.424508   4.031103
    13  H    3.025519   2.153562   1.101381   2.158289   2.804271
    14  H    3.908037   2.757693   2.144479   1.094977   2.156484
    15  H    3.970578   2.777789   2.757350   2.167887   1.099718
    16  H    1.907883   2.434712   2.545610   3.987341   4.566431
    17  H    3.796786   3.218742   1.952719   2.820923   4.145768
    18  H    5.015517   3.787244   2.642913   1.950518   2.696990
    19  H    5.697771   4.712668   4.961396   3.757000   3.206461
    20  H    5.073779   4.043784   4.490909   3.503255   2.147090
    21  H    5.593612   4.341285   4.183050   2.783974   2.123050
    22  Na   3.573521   3.210192   4.234285   3.942518   3.292649
                    6          7          8          9         10
     6  C    0.000000
     7  O    5.919971   0.000000
     8  O    4.847256   2.828966   0.000000
     9  O    3.204425   5.492229   3.237235   0.000000
    10  O    2.400673   3.648771   3.488570   3.605804   0.000000
    11  O    1.420233   5.902744   4.841005   3.815574   2.716779
    12  H    5.009647   2.053038   3.967771   5.735988   2.659432
    13  H    4.274912   3.325588   2.065582   2.637708   2.973295
    14  H    2.703552   4.622814   2.596672   2.011729   2.703927
    15  H    2.134915   5.012963   4.146424   2.660468   2.078416
    16  H    5.879335   0.969198   2.034980   4.965791   3.809867
    17  H    5.350452   3.573095   0.963535   3.143780   4.250868
    18  H    3.612175   5.572450   3.543753   0.964446   3.825445
    19  H    1.961701   6.842604   5.694829   4.407992   3.652418
    20  H    1.095917   6.358537   5.684896   4.139663   2.710182
    21  H    1.095548   6.695002   5.242737   2.914991   3.334494
    22  Na   3.159885   4.745750   4.806855   5.233093   2.437275
                   11         12         13         14         15
    11  O    0.000000
    12  H    4.964677   0.000000
    13  H    4.863265   3.993157   0.000000
    14  H    2.551428   4.640370   3.033704   0.000000
    15  H    3.317367   4.437331   2.752888   3.057907   0.000000
    16  H    5.866294   2.835964   2.870422   4.204435   4.950912
    17  H    5.441455   4.867666   2.232543   2.996174   4.533878
    18  H    4.466298   5.864480   2.383190   2.827036   2.491452
    19  H    0.961650   5.862139   5.749184   3.272410   4.055321
    20  H    2.075967   5.154599   4.910351   3.740781   2.423449
    21  H    2.084884   5.984120   4.593270   2.941535   2.476708
    22  Na   2.331455   3.372320   5.135536   3.577437   4.212589
                   16         17         18         19         20
    16  H    0.000000
    17  H    2.684104   0.000000
    18  H    5.071978   3.372596   0.000000
    19  H    6.796072   6.243651   5.091237   0.000000
    20  H    6.461447   6.241405   4.385989   2.415411   0.000000
    21  H    6.534560   5.574945   3.323326   2.280438   1.782618
    22  Na   5.025935   5.675946   5.769360   2.952168   3.337689
                   21         22
    21  H    0.000000
    22  Na   4.170296   0.000000
 Symmetry turned off by external request.
 Stoichiometry    C6H10NaO5(1+)
 Framework group  C1[X(C6H10NaO5)]
 Deg. of freedom    60
 Full point group                 C1      NOp   1
 Rotational constants (GHZ):      1.0693083      0.7505771      0.5086213
 Standard basis: 6-31+G(2df,p) (6D, 7F)
 Integral buffers will be    131072 words long.
 Raffenetti 2 integral format.
 Two-electron integral symmetry is turned off.
   438 basis functions,   670 primitive gaussians,   474 cartesian basis functions
    48 alpha electrons       48 beta electrons
       nuclear repulsion energy       821.4613289369 Hartrees.
 NAtoms=   22 NActive=   22 NUniq=   22 SFac= 1.00D+00 NAtFMM=   50 NAOKFM=F Big=F
 ------------------------------------------------------------------------------
 Polarizable Continuum Model (PCM)
 =================================
 Model                : PCM.
 Atomic radii         : UFF (Universal Force Field).
 Polarization charges : Total charges.
 Charge compensation  : None.
 Solution method      : Matrix inversion.
 Cavity type          : Scaled VdW (van der Waals Surface) (Alpha=1.100).
 Cavity algorithm     : GePol (No added spheres)
                        Default sphere list used, NSphG=   22.
                        Lebedev-Laikov grids with approx.  5.0 points / Ang**2.
                        Smoothing algorithm: Karplus/York (Gamma=1.0000).
                        Polarization charges: spherical gaussians, with
                                              point-specific exponents (IZeta= 3).
                        Self-potential: point-specific (ISelfS= 7).
                        Self-field    : sphere-specific E.n sum rule (ISelfD= 2).
 1st derivatives      : Analytical E(r).r(x)/FMM algorithm (CHGder, D1EAlg=3).
                        Cavity 1st derivative terms included.
 Solvent              : Ethanol, Eps=  24.852000 Eps(inf)=   1.852593
 ------------------------------------------------------------------------------
 One-electron integrals computed using PRISM.
 NBasis=   438 RedAO= T  NBF=   438
 NBsUse=   438 1.00D-06 NBFU=   438
 Harris functional with IExCor= 1009 diagonalized for initial guess.
 ExpMin= 7.60D-03 ExpMax= 9.99D+03 ExpMxC= 1.50D+03 IAcc=3 IRadAn=         0 AccDes= 0.00D+00
 HarFok:  IExCor= 1009 AccDes= 0.00D+00 IRadAn=         0 IDoV= 1
 ScaDFX=  1.000000  1.000000  1.000000  1.000000
 FoFCou: FMM=F IPFlag=           0 FMFlag=      100000 FMFlg1=           0
         NFxFlg=           0 DoJE=T BraDBF=F KetDBF=T FulRan=T
         Omega=  0.000000  0.000000  1.000000  0.000000  0.000000 ICntrl=     500 IOpCl=  0
         NMat0=    1 NMatS0=    1 NMatT0=    0 NMatD0=    1 NMtDS0=    0 NMtDT0=    0
         I1Cent=           4 NGrid=           0.
 Symmetry not used in FoFCou.
 Requested convergence on RMS density matrix=1.00D-06 within 128 cycles.
 Requested convergence on MAX density matrix=1.00D-04.
 Requested convergence on             energy=1.00D-04.
 No special actions if energy rises.
 Error on total polarization charges =  0.01022
 SCF Done:  E(RM062X) =  -772.782501830     A.U. after    9 cycles
             Convg  =    0.3901D-06             -V/T =  2.0059
 QCSCF skips out because SCF is already converged.

 **********************************************************************

            Population analysis using the SCF density.

 **********************************************************************

 Alpha  occ. eigenvalues --  -39.15037 -19.68993 -19.67121 -19.67115 -19.66789
 Alpha  occ. eigenvalues --  -19.66377 -10.62808 -10.62506 -10.61869 -10.61668
 Alpha  occ. eigenvalues --  -10.61079 -10.60854  -2.39480  -1.27424  -1.27367
 Alpha  occ. eigenvalues --   -1.27319  -1.22323  -1.19040  -1.18148  -1.17719
 Alpha  occ. eigenvalues --   -1.17078  -0.90650  -0.89708  -0.82405  -0.75292
 Alpha  occ. eigenvalues --   -0.71592  -0.68503  -0.65709  -0.63857  -0.62085
 Alpha  occ. eigenvalues --   -0.58834  -0.58040  -0.56181  -0.54030  -0.53429
 Alpha  occ. eigenvalues --   -0.52728  -0.49845  -0.49260  -0.48458  -0.46919
 Alpha  occ. eigenvalues --   -0.45096  -0.44732  -0.42612  -0.42204  -0.39671
 Alpha  occ. eigenvalues --   -0.38513  -0.35226  -0.27768
 Alpha virt. eigenvalues --   -0.01528  -0.00595  -0.00237  -0.00067   0.02050
 Alpha virt. eigenvalues --    0.02717   0.03153   0.03585   0.03928   0.04130
 Alpha virt. eigenvalues --    0.04366   0.04886   0.05205   0.05791   0.06202
 Alpha virt. eigenvalues --    0.07112   0.08409   0.08465   0.09224   0.09780
 Alpha virt. eigenvalues --    0.10141   0.11067   0.12442   0.13018   0.13274
 Alpha virt. eigenvalues --    0.13633   0.14381   0.15006   0.15797   0.16316
 Alpha virt. eigenvalues --    0.16855   0.17099   0.18423   0.18612   0.19465
 Alpha virt. eigenvalues --    0.20292   0.20616   0.21406   0.21631   0.22028
 Alpha virt. eigenvalues --    0.23030   0.23458   0.24095   0.24792   0.25526
 Alpha virt. eigenvalues --    0.25949   0.26006   0.26879   0.27414   0.27707
 Alpha virt. eigenvalues --    0.28347   0.28710   0.28979   0.29792   0.30417
 Alpha virt. eigenvalues --    0.31267   0.31646   0.32148   0.32390   0.32600
 Alpha virt. eigenvalues --    0.33405   0.34461   0.35164   0.35559   0.36254
 Alpha virt. eigenvalues --    0.37051   0.37372   0.37840   0.38956   0.39297
 Alpha virt. eigenvalues --    0.39375   0.41522   0.42031   0.42625   0.43256
 Alpha virt. eigenvalues --    0.43870   0.44458   0.44970   0.45441   0.46409
 Alpha virt. eigenvalues --    0.49482   0.51291   0.53463   0.56643   0.59376
 Alpha virt. eigenvalues --    0.60343   0.61637   0.63056   0.63389   0.64406
 Alpha virt. eigenvalues --    0.64907   0.67814   0.68131   0.69851   0.70968
 Alpha virt. eigenvalues --    0.72009   0.72545   0.74508   0.75539   0.76267
 Alpha virt. eigenvalues --    0.76991   0.78793   0.80897   0.82140   0.84751
 Alpha virt. eigenvalues --    0.85157   0.85235   0.86499   0.87827   0.90893
 Alpha virt. eigenvalues --    0.91206   0.92016   0.93390   0.94306   0.95337
 Alpha virt. eigenvalues --    0.96029   0.96896   0.97164   0.97226   0.98173
 Alpha virt. eigenvalues --    0.99159   0.99982   1.00630   1.01040   1.01440
 Alpha virt. eigenvalues --    1.02917   1.04634   1.05616   1.06591   1.07943
 Alpha virt. eigenvalues --    1.08645   1.10385   1.10595   1.13100   1.14469
 Alpha virt. eigenvalues --    1.15185   1.15789   1.17131   1.17603   1.19386
 Alpha virt. eigenvalues --    1.20233   1.21556   1.22802   1.24261   1.25241
 Alpha virt. eigenvalues --    1.27138   1.27373   1.28104   1.28976   1.29751
 Alpha virt. eigenvalues --    1.31444   1.32098   1.33689   1.35636   1.36974
 Alpha virt. eigenvalues --    1.38580   1.39699   1.40305   1.41820   1.43364
 Alpha virt. eigenvalues --    1.44794   1.46236   1.48308   1.49468   1.51668
 Alpha virt. eigenvalues --    1.52812   1.53650   1.54666   1.56406   1.58684
 Alpha virt. eigenvalues --    1.60480   1.63662   1.66374   1.67084   1.68144
 Alpha virt. eigenvalues --    1.69666   1.71642   1.73094   1.73847   1.74554
 Alpha virt. eigenvalues --    1.76556   1.81079   1.82537   1.83690   1.85730
 Alpha virt. eigenvalues --    1.89283   1.90140   1.91257   1.93347   1.95941
 Alpha virt. eigenvalues --    1.97411   2.01496   2.02172   2.08061   2.09029
 Alpha virt. eigenvalues --    2.10140   2.13055   2.15883   2.18960   2.23365
 Alpha virt. eigenvalues --    2.25101   2.28289   2.32311   2.33372   2.35564
 Alpha virt. eigenvalues --    2.37025   2.40568   2.44033   2.45524   2.49312
 Alpha virt. eigenvalues --    2.54100   2.56620   2.57777   2.58675   2.61605
 Alpha virt. eigenvalues --    2.62194   2.63101   2.67723   2.68365   2.72120
 Alpha virt. eigenvalues --    2.73976   2.76846   2.80203   2.85574   2.88974
 Alpha virt. eigenvalues --    2.89149   2.90932   2.96314   2.96752   2.99569
 Alpha virt. eigenvalues --    3.00391   3.03094   3.04270   3.05551   3.07208
 Alpha virt. eigenvalues --    3.08550   3.09743   3.11060   3.12194   3.14339
 Alpha virt. eigenvalues --    3.16242   3.16884   3.20162   3.22012   3.25496
 Alpha virt. eigenvalues --    3.26074   3.28901   3.30460   3.34060   3.35154
 Alpha virt. eigenvalues --    3.37029   3.38499   3.39791   3.42440   3.45686
 Alpha virt. eigenvalues --    3.49152   3.53681   3.54764   3.57250   3.59115
 Alpha virt. eigenvalues --    3.61818   3.65096   3.66300   3.67500   3.72108
 Alpha virt. eigenvalues --    3.74437   3.77282   3.83004   3.87999   3.89199
 Alpha virt. eigenvalues --    3.95202   3.96400   4.04016   4.07205   4.09586
 Alpha virt. eigenvalues --    4.13391   4.16833   4.20805   4.22420   4.26264
 Alpha virt. eigenvalues --    4.29599   4.31815   4.33060   4.34121   4.35144
 Alpha virt. eigenvalues --    4.37701   4.40073   4.40955   4.42827   4.43652
 Alpha virt. eigenvalues --    4.44133   4.47847   4.49093   4.50295   4.51734
 Alpha virt. eigenvalues --    4.52301   4.53114   4.53866   4.54173   4.55901
 Alpha virt. eigenvalues --    4.58708   4.60637   4.62069   4.62763   4.64311
 Alpha virt. eigenvalues --    4.65780   4.66123   4.67362   4.68243   4.69261
 Alpha virt. eigenvalues --    4.70041   4.70501   4.73511   4.75258   4.76636
 Alpha virt. eigenvalues --    4.79698   4.80466   4.82635   4.84797   4.86588
 Alpha virt. eigenvalues --    4.89603   4.90185   4.95006   4.98937   5.02059
 Alpha virt. eigenvalues --    5.03364   5.06152   5.08699   5.13991   5.17884
 Alpha virt. eigenvalues --    5.20563   5.22007   5.23459   5.26175   5.31551
 Alpha virt. eigenvalues --    5.33334   5.34969   5.35662   5.38859   5.40611
 Alpha virt. eigenvalues --    5.42636   5.43460   5.44834   5.45416   5.47532
 Alpha virt. eigenvalues --    5.50680   5.52649   5.54668   5.57917   5.61526
 Alpha virt. eigenvalues --    5.66222   5.70398   5.73767   5.76310   5.79503
 Alpha virt. eigenvalues --    5.86140   5.87173   5.87291   5.90940   5.93591
 Alpha virt. eigenvalues --    5.93795   5.97432   5.99975   6.00410   6.03434
 Alpha virt. eigenvalues --    6.06441   6.11070   6.11622   6.14469   6.16523
 Alpha virt. eigenvalues --    6.30509   6.47843   6.69957   6.99903   7.13319
 Alpha virt. eigenvalues --    7.19242   7.28866   7.43636   7.65537  11.62890
 Alpha virt. eigenvalues --   12.07268  12.25277  12.45817  12.96885  13.02536
 Alpha virt. eigenvalues --   13.34613  13.46153  13.67957  13.73313  14.16820
          Condensed to atoms (all electrons):
              1          2          3          4          5          6
     1  C    7.156077  -0.295753  -0.639807   0.051260  -0.344034   0.062400
     2  C   -0.295753   6.195657   0.028331   0.019406  -0.326716   0.129056
     3  C   -0.639807   0.028331   5.835444  -0.019976   0.330536  -0.090757
     4  C    0.051260   0.019406  -0.019976   5.652072  -0.160731   0.048816
     5  C   -0.344034  -0.326716   0.330536  -0.160731   6.058463  -0.177598
     6  C    0.062400   0.129056  -0.090757   0.048816  -0.177598   5.561404
     7  O    0.148911  -0.014554   0.021243  -0.007709   0.001977   0.001817
     8  O   -0.044926   0.011431   0.219985  -0.045347   0.005742   0.001658
     9  O   -0.001251  -0.020435   0.006113   0.155282   0.053994  -0.018746
    10  O   -0.193808   0.172752   0.070093  -0.058415   0.188178  -0.050841
    11  O   -0.011112  -0.047017   0.030179  -0.037438   0.024652   0.127801
    12  H    0.315935   0.028075   0.015451   0.001788   0.005395  -0.003007
    13  H   -0.019206  -0.009176   0.338381  -0.035856   0.017488   0.006539
    14  H   -0.010332   0.000312  -0.065378   0.467721  -0.074235  -0.004472
    15  H    0.022903   0.004770  -0.018977   0.014136   0.332049  -0.029667
    16  H   -0.052476  -0.012215   0.034839   0.002584   0.001799  -0.000244
    17  H   -0.006301   0.017165  -0.008587  -0.019543   0.002576   0.000438
    18  H    0.001206   0.012201  -0.056834   0.081890  -0.059281   0.002594
    19  H    0.000703   0.003448  -0.001625   0.005275   0.003789  -0.028696
    20  H   -0.001503  -0.000716   0.006447  -0.006039  -0.089309   0.471953
    21  H   -0.000690  -0.005368   0.000413   0.003876  -0.030580   0.403611
    22  Na   0.014112  -0.037854   0.016610   0.000410   0.018402  -0.039596
              7          8          9         10         11         12
     1  C    0.148911  -0.044926  -0.001251  -0.193808  -0.011112   0.315935
     2  C   -0.014554   0.011431  -0.020435   0.172752  -0.047017   0.028075
     3  C    0.021243   0.219985   0.006113   0.070093   0.030179   0.015451
     4  C   -0.007709  -0.045347   0.155282  -0.058415  -0.037438   0.001788
     5  C    0.001977   0.005742   0.053994   0.188178   0.024652   0.005395
     6  C    0.001817   0.001658  -0.018746  -0.050841   0.127801  -0.003007
     7  O    8.108432  -0.025929   0.000347   0.005155   0.000056  -0.037263
     8  O   -0.025929   8.152346   0.005409  -0.001344   0.000191  -0.000901
     9  O    0.000347   0.005409   8.093908  -0.000290  -0.002239  -0.000011
    10  O    0.005155  -0.001344  -0.000290   8.054301  -0.002700  -0.006833
    11  O    0.000056   0.000191  -0.002239  -0.002700   8.241944  -0.000077
    12  H   -0.037263  -0.000901  -0.000011  -0.006833  -0.000077   0.479973
    13  H    0.004560  -0.020314  -0.000402   0.005871  -0.000024  -0.000091
    14  H   -0.000003  -0.000562  -0.038213   0.016145   0.003825  -0.000002
    15  H   -0.000122  -0.000290  -0.004156  -0.032952   0.004946   0.000001
    16  H    0.285319   0.013561  -0.000074   0.000809  -0.000004   0.003515
    17  H    0.001005   0.287621   0.001302  -0.000241   0.000027   0.000009
    18  H    0.000002  -0.001100   0.283032   0.000963   0.000164   0.000000
    19  H    0.000000  -0.000008   0.000013   0.001134   0.288627   0.000000
    20  H    0.000003   0.000011   0.000055   0.002691  -0.043496  -0.000001
    21  H   -0.000001  -0.000025   0.001339   0.004084  -0.030053   0.000000
    22  Na  -0.001123  -0.002590  -0.000515   0.061524   0.032475   0.000284
             13         14         15         16         17         18
     1  C   -0.019206  -0.010332   0.022903  -0.052476  -0.006301   0.001206
     2  C   -0.009176   0.000312   0.004770  -0.012215   0.017165   0.012201
     3  C    0.338381  -0.065378  -0.018977   0.034839  -0.008587  -0.056834
     4  C   -0.035856   0.467721   0.014136   0.002584  -0.019543   0.081890
     5  C    0.017488  -0.074235   0.332049   0.001799   0.002576  -0.059281
     6  C    0.006539  -0.004472  -0.029667  -0.000244   0.000438   0.002594
     7  O    0.004560  -0.000003  -0.000122   0.285319   0.001005   0.000002
     8  O   -0.020314  -0.000562  -0.000290   0.013561   0.287621  -0.001100
     9  O   -0.000402  -0.038213  -0.004156  -0.000074   0.001302   0.283032
    10  O    0.005871   0.016145  -0.032952   0.000809  -0.000241   0.000963
    11  O   -0.000024   0.003825   0.004946  -0.000004   0.000027   0.000164
    12  H   -0.000091  -0.000002   0.000001   0.003515   0.000009   0.000000
    13  H    0.525217   0.003650   0.000159  -0.000994  -0.004903   0.002713
    14  H    0.003650   0.501660   0.003753  -0.000009  -0.000001   0.005042
    15  H    0.000159   0.003753   0.529332   0.000002   0.000001   0.002353
    16  H   -0.000994  -0.000009   0.000002   0.314711  -0.000495   0.000000
    17  H   -0.004903  -0.000001   0.000001  -0.000495   0.328668   0.000061
    18  H    0.002713   0.005042   0.002353   0.000000   0.000061   0.346155
    19  H    0.000000  -0.000140  -0.000119   0.000000   0.000000   0.000000
    20  H    0.000003   0.000024  -0.001806   0.000000   0.000000  -0.000008
    21  H   -0.000003  -0.000129  -0.000020   0.000000   0.000000  -0.000090
    22  Na   0.000346   0.000269   0.002917  -0.000234   0.000001   0.000081
             19         20         21         22
     1  C    0.000703  -0.001503  -0.000690   0.014112
     2  C    0.003448  -0.000716  -0.005368  -0.037854
     3  C   -0.001625   0.006447   0.000413   0.016610
     4  C    0.005275  -0.006039   0.003876   0.000410
     5  C    0.003789  -0.089309  -0.030580   0.018402
     6  C   -0.028696   0.471953   0.403611  -0.039596
     7  O    0.000000   0.000003  -0.000001  -0.001123
     8  O   -0.000008   0.000011  -0.000025  -0.002590
     9  O    0.000013   0.000055   0.001339  -0.000515
    10  O    0.001134   0.002691   0.004084   0.061524
    11  O    0.288627  -0.043496  -0.030053   0.032475
    12  H    0.000000  -0.000001   0.000000   0.000284
    13  H    0.000000   0.000003  -0.000003   0.000346
    14  H   -0.000140   0.000024  -0.000129   0.000269
    15  H   -0.000119  -0.001806  -0.000020   0.002917
    16  H    0.000000   0.000000   0.000000  -0.000234
    17  H    0.000000   0.000000   0.000000   0.000001
    18  H    0.000000  -0.000008  -0.000090   0.000081
    19  H    0.310483  -0.000698  -0.004602  -0.006492
    20  H   -0.000698   0.509043  -0.031347  -0.000992
    21  H   -0.004602  -0.031347   0.493500   0.002945
    22  Na  -0.006492  -0.000992   0.002945   9.976147
 Mulliken atomic charges:
              1
     1  C   -0.152308
     2  C    0.147199
     3  C   -0.052126
     4  C   -0.113463
     5  C    0.217443
     6  C   -0.374462
     7  O   -0.492124
     8  O   -0.554619
     9  O   -0.514462
    10  O   -0.236276
    11  O   -0.580726
    12  H    0.197759
    13  H    0.186042
    14  H    0.191074
    15  H    0.170787
    16  H    0.409607
    17  H    0.401197
    18  H    0.378854
    19  H    0.428906
    20  H    0.185684
    21  H    0.193140
    22  Na   0.962874
 Sum of Mulliken atomic charges =   1.00000
 Mulliken charges with hydrogens summed into heavy atoms:
              1
     1  C    0.045451
     2  C    0.147199
     3  C    0.133916
     4  C    0.077611
     5  C    0.388230
     6  C    0.004361
     7  O   -0.082516
     8  O   -0.153423
     9  O   -0.135608
    10  O   -0.236276
    11  O   -0.151820
    22  Na   0.962874
 Sum of Mulliken charges with hydrogens summed into heavy atoms =   1.00000
 Electronic spatial extent (au):  <R**2>=           3157.3381
 Charge=              1.0000 electrons
 Dipole moment (field-independent basis, Debye):
    X=             13.7693    Y=              1.6675    Z=              2.1471  Tot=             14.0351
 Quadrupole moment (field-independent basis, Debye-Ang):
   XX=            -25.8093   YY=            -66.9207   ZZ=            -39.0417
   XY=             -2.3144   XZ=             15.7796   YZ=             -6.8663
 Traceless Quadrupole moment (field-independent basis, Debye-Ang):
   XX=             18.1146   YY=            -22.9968   ZZ=              4.8822
   XY=             -2.3144   XZ=             15.7796   YZ=             -6.8663
 Octapole moment (field-independent basis, Debye-Ang**2):
  XXX=            -47.3657  YYY=           -205.9773  ZZZ=            146.0662  XYY=            -97.5089
  XXY=            -37.5339  XXZ=             87.4515  XZZ=            -34.8611  YZZ=            -49.1412
  YYZ=             57.6658  XYZ=             15.7745
 Hexadecapole moment (field-independent basis, Debye-Ang**3):
 XXXX=          -1181.9070 YYYY=           -913.1316 ZZZZ=           -568.2060 XXXY=           -147.5921
 XXXZ=            329.7836 YYYX=           -360.2743 YYYZ=            323.5631 ZZZX=            247.3510
 ZZZY=            237.0934 XXYY=           -447.1790 XXZZ=           -350.8561 YYZZ=           -272.9376
 XXYZ=            122.4594 YYXZ=            148.7230 ZZXY=           -114.3080
 N-N= 8.214613289369D+02 E-N=-3.449079568570D+03  KE= 7.682188056488D+02
 D1PCM: PCM CHGder 1st derivatives, ID1Alg=3 FixD1E=F DoIter=F DoCFld=F I1PDM=0.
 Calling FoFJK, ICntrl=      2127 FMM=F ISym2X=0 I1Cent= 0 IOpClX= 0 NMat=1 NMatS=1 NMatT=0.
 -------------------------------------------------------------------
 Center     Atomic                   Forces (Hartrees/Bohr)
 Number     Number              X              Y              Z
 -------------------------------------------------------------------
      1        6           0.000005652   -0.000010377   -0.000004778
      2        6          -0.000000590   -0.000002495   -0.000002867
      3        6          -0.000004869    0.000012419    0.000018847
      4        6           0.000274608    0.000107392    0.000169239
      5        6          -0.000150926   -0.000082432   -0.000128394
      6        6          -0.000000530   -0.000005866   -0.000026924
      7        8           0.000006575   -0.000007118    0.000012926
      8        8           0.000004967    0.000004818    0.000041830
      9        8          -0.000420387    0.000158578   -0.000010432
     10        8          -0.000002097   -0.000009798   -0.000020119
     11        8           0.000012464   -0.000027710   -0.000014497
     12        1           0.000007739   -0.000022179   -0.000021761
     13        1          -0.000012580    0.000031185    0.000016859
     14        1           0.000006726   -0.000005495    0.000021650
     15        1          -0.000015597    0.000023697   -0.000023044
     16        1           0.000004990   -0.000000948    0.000028929
     17        1           0.000000073    0.000017860    0.000055056
     18        1           0.000260169   -0.000096669    0.000006665
     19        1           0.000013801   -0.000035437   -0.000021874
     20        1          -0.000004450   -0.000007216   -0.000047619
     21        1          -0.000005588    0.000004654   -0.000020221
     22       11           0.000019851   -0.000046861   -0.000029469
 -------------------------------------------------------------------
 Cartesian Forces:  Max     0.000420387 RMS     0.000083719

 GradGradGradGradGradGradGradGradGradGradGradGradGradGradGradGradGradGrad
 Berny optimization.
 Internal  Forces:  Max     0.000236433 RMS     0.000031423
 Search for a local minimum.
 Step number   1 out of a maximum of  132
 All quantities printed in internal units (Hartrees-Bohrs-Radians)
 Mixed Optimization -- En-DIIS/RFO-DIIS
 Second derivative matrix not updated -- first step.
 ITU=  0
     Eigenvalues ---    0.00639   0.01121   0.01357   0.01524   0.01552
     Eigenvalues ---    0.01695   0.02027   0.02191   0.02789   0.02978
     Eigenvalues ---    0.03043   0.03768   0.04403   0.04694   0.05024
     Eigenvalues ---    0.05403   0.05759   0.05777   0.05992   0.06404
     Eigenvalues ---    0.06963   0.07287   0.07451   0.08331   0.08895
     Eigenvalues ---    0.09144   0.09915   0.11970   0.12753   0.14464
     Eigenvalues ---    0.16000   0.16000   0.16000   0.16000   0.16653
     Eigenvalues ---    0.19486   0.21218   0.22000   0.24982   0.27273
     Eigenvalues ---    0.27919   0.30239   0.30539   0.33530   0.33713
     Eigenvalues ---    0.34138   0.34179   0.34244   0.35516   0.35745
     Eigenvalues ---    0.40492   0.43581   0.45029   0.45659   0.52499
     Eigenvalues ---    0.53541   0.54528   0.54720   0.55120   0.60018
 RFO step:  Lambda=-6.16922922D-06 EMin= 6.39189210D-03
 Linear search not attempted -- first point.
 Iteration  1 RMS(Cart)=  0.00154661 RMS(Int)=  0.00000834
 Iteration  2 RMS(Cart)=  0.00000803 RMS(Int)=  0.00000009
 Iteration  3 RMS(Cart)=  0.00000000 RMS(Int)=  0.00000009
 Variable       Old X    -DE/DX   Delta X   Delta X   Delta X     New X
                                 (Linear)    (Quad)   (Total)
    R1        2.50926   0.00000   0.00000   0.00000   0.00000   2.50926
    R2        2.57424   0.00000   0.00000   0.00000   0.00000   2.57424
    R3        2.04846   0.00000   0.00000   0.00000   0.00000   2.04846
    R4        2.84305  -0.00001   0.00000  -0.00004  -0.00004   2.84301
    R5        2.62372  -0.00002   0.00000  -0.00008  -0.00008   2.62365
    R6        2.89159   0.00002   0.00000   0.00009   0.00009   2.89169
    R7        2.66959   0.00000   0.00000   0.00000   0.00000   2.66959
    R8        2.08131   0.00000   0.00000   0.00000   0.00000   2.08131
    R9        2.89693   0.00002   0.00000   0.00010   0.00010   2.89703
   R10        2.64517   0.00000   0.00000   0.00000   0.00000   2.64517
   R11        2.06921   0.00000   0.00000   0.00000   0.00000   2.06921
   R12        2.85167   0.00000   0.00000   0.00000   0.00000   2.85167
   R13        2.70673   0.00000   0.00000  -0.00002  -0.00002   2.70671
   R14        2.07817   0.00000   0.00000   0.00000   0.00000   2.07816
   R15        2.68385   0.00000   0.00000   0.00001   0.00001   2.68386
   R16        2.07098   0.00000   0.00000   0.00000   0.00000   2.07098
   R17        2.07029   0.00000   0.00000   0.00000   0.00000   2.07029
   R18        1.83152   0.00000   0.00000   0.00000   0.00000   1.83152
   R19        1.82082   0.00000   0.00000   0.00000   0.00000   1.82082
   R20        1.82254   0.00000   0.00000   0.00000   0.00000   1.82254
   R21        4.60578   0.00000   0.00000  -0.00004  -0.00004   4.60574
   R22        1.81726   0.00000   0.00000   0.00000   0.00000   1.81725
   R23        4.40581   0.00000   0.00000   0.00001   0.00001   4.40582
    A1        2.16519   0.00000   0.00000   0.00000   0.00000   2.16519
    A2        2.13459   0.00000   0.00000   0.00000   0.00000   2.13459
    A3        1.98339   0.00000   0.00000   0.00000   0.00000   1.98339
    A4        2.22371   0.00001   0.00000   0.00008   0.00008   2.22379
    A5        2.13220   0.00000   0.00000   0.00006   0.00006   2.13226
    A6        1.92689  -0.00001   0.00000  -0.00013  -0.00013   1.92676
    A7        1.77152   0.00003   0.00000   0.00014   0.00014   1.77167
    A8        1.91961   0.00000   0.00000  -0.00004  -0.00004   1.91958
    A9        1.92883  -0.00001   0.00000  -0.00001  -0.00001   1.92882
   A10        2.01695  -0.00002   0.00000  -0.00006  -0.00006   2.01689
   A11        1.90442   0.00001   0.00000   0.00001   0.00001   1.90443
   A12        1.91768   0.00000   0.00000  -0.00003  -0.00003   1.91764
   A13        1.76979  -0.00005   0.00000  -0.00056  -0.00056   1.76923
   A14        2.02788  -0.00002   0.00000  -0.00062  -0.00062   2.02725
   A15        1.89215  -0.00001   0.00000  -0.00016  -0.00016   1.89198
   A16        1.99978   0.00001   0.00000  -0.00023  -0.00023   1.99955
   A17        1.90506   0.00006   0.00000   0.00113   0.00113   1.90619
   A18        1.86494   0.00001   0.00000   0.00052   0.00052   1.86546
   A19        2.01077  -0.00002   0.00000  -0.00008  -0.00008   2.01069
   A20        1.81258   0.00002   0.00000   0.00015   0.00015   1.81273
   A21        1.91580   0.00001   0.00000   0.00004   0.00004   1.91583
   A22        1.90903  -0.00001   0.00000  -0.00008  -0.00008   1.90895
   A23        1.89945   0.00000   0.00000  -0.00002  -0.00002   1.89943
   A24        1.91357   0.00000   0.00000   0.00000   0.00000   1.91357
   A25        1.88446   0.00000   0.00000   0.00000   0.00000   1.88446
   A26        1.92003   0.00000   0.00000  -0.00001  -0.00001   1.92002
   A27        1.88756   0.00000   0.00000   0.00000   0.00000   1.88756
   A28        1.92906   0.00000   0.00000   0.00001   0.00001   1.92907
   A29        1.94223   0.00000   0.00000  -0.00001  -0.00001   1.94222
   A30        1.90007   0.00000   0.00000   0.00000   0.00000   1.90008
   A31        1.89654   0.00000   0.00000   0.00000   0.00000   1.89654
   A32        1.90347   0.00000   0.00000   0.00000   0.00000   1.90347
   A33        1.91654   0.00000   0.00000   0.00000   0.00000   1.91654
   A34        1.88930  -0.00001   0.00000  -0.00015  -0.00015   1.88915
   A35        1.93920   0.00001   0.00000   0.00007   0.00007   1.93927
   A36        1.99121   0.00000   0.00000   0.00000   0.00000   1.99121
   A37        1.90905   0.00000   0.00000   0.00000   0.00000   1.90906
   A38        1.96314   0.00000   0.00000   0.00003   0.00003   1.96317
   A39        2.12369   0.00000   0.00000   0.00001   0.00001   2.12371
   A40        1.21159   0.00000   0.00000   0.00001   0.00001   1.21159
    D1       -0.01086  -0.00001   0.00000  -0.00012  -0.00012  -0.01098
    D2        3.09806   0.00000   0.00000   0.00011   0.00011   3.09817
    D3        3.12509  -0.00001   0.00000  -0.00013  -0.00013   3.12497
    D4       -0.04917   0.00000   0.00000   0.00011   0.00011  -0.04907
    D5       -0.23970   0.00000   0.00000  -0.00001  -0.00001  -0.23971
    D6        2.90709   0.00000   0.00000   0.00000   0.00000   2.90708
    D7        2.83084  -0.00002   0.00000  -0.00045  -0.00045   2.83039
    D8        0.68656   0.00000   0.00000  -0.00044  -0.00044   0.68612
    D9       -1.43381   0.00000   0.00000  -0.00037  -0.00037  -1.43418
   D10       -0.28125  -0.00002   0.00000  -0.00066  -0.00066  -0.28191
   D11       -2.42553  -0.00001   0.00000  -0.00065  -0.00065  -2.42618
   D12        1.73729  -0.00001   0.00000  -0.00058  -0.00058   1.73671
   D13        3.02466  -0.00001   0.00000   0.00003   0.00003   3.02469
   D14       -1.05921   0.00000   0.00000  -0.00003  -0.00003  -1.05924
   D15       -0.14462   0.00000   0.00000   0.00022   0.00022  -0.14440
   D16        2.05470   0.00001   0.00000   0.00017   0.00017   2.05487
   D17        0.55861   0.00002   0.00000   0.00069   0.00069   0.55929
   D18        2.73840  -0.00002   0.00000  -0.00038  -0.00038   2.73801
   D19       -1.44549  -0.00002   0.00000  -0.00025  -0.00025  -1.44574
   D20        2.63458   0.00003   0.00000   0.00071   0.00071   2.63528
   D21       -1.46881  -0.00001   0.00000  -0.00037  -0.00037  -1.46918
   D22        0.63048  -0.00002   0.00000  -0.00024  -0.00024   0.63025
   D23       -1.47783   0.00002   0.00000   0.00063   0.00063  -1.47721
   D24        0.70196  -0.00002   0.00000  -0.00045  -0.00045   0.70151
   D25        2.80126  -0.00002   0.00000  -0.00032  -0.00032   2.80094
   D26       -2.91134   0.00001   0.00000   0.00005   0.00005  -2.91128
   D27        1.37954  -0.00001   0.00000  -0.00006  -0.00006   1.37948
   D28       -0.78432   0.00000   0.00000  -0.00001  -0.00001  -0.78433
   D29       -2.75270  -0.00002   0.00000  -0.00058  -0.00058  -2.75328
   D30       -0.66542  -0.00002   0.00000  -0.00062  -0.00062  -0.66604
   D31        1.37941  -0.00001   0.00000  -0.00052  -0.00052   1.37889
   D32        1.33195   0.00004   0.00000   0.00073   0.00073   1.33268
   D33       -2.86395   0.00004   0.00000   0.00069   0.00069  -2.86326
   D34       -0.81912   0.00005   0.00000   0.00079   0.00079  -0.81834
   D35       -0.75822  -0.00003   0.00000  -0.00060  -0.00060  -0.75882
   D36        1.32906  -0.00003   0.00000  -0.00064  -0.00064   1.32842
   D37       -2.90930  -0.00002   0.00000  -0.00054  -0.00055  -2.90984
   D38       -0.92837  -0.00016   0.00000  -0.01011  -0.01011  -0.93848
   D39        1.12854  -0.00024   0.00000  -0.01154  -0.01154   1.11701
   D40       -3.04224  -0.00014   0.00000  -0.00988  -0.00988  -3.05212
   D41        1.08826   0.00000   0.00000  -0.00008  -0.00008   1.08817
   D42       -3.08844   0.00000   0.00000  -0.00007  -0.00007  -3.08851
   D43       -1.01525   0.00000   0.00000  -0.00007  -0.00007  -1.01533
   D44       -0.94497   0.00000   0.00000  -0.00017  -0.00017  -0.94513
   D45        1.16152   0.00000   0.00000  -0.00016  -0.00016   1.16137
   D46       -3.04848   0.00000   0.00000  -0.00015  -0.00015  -3.04863
   D47       -3.03521   0.00000   0.00000  -0.00011  -0.00011  -3.03531
   D48       -0.92871   0.00000   0.00000  -0.00010  -0.00010  -0.92881
   D49        1.14447   0.00000   0.00000  -0.00010  -0.00010   1.14437
   D50        0.51157   0.00002   0.00000   0.00036   0.00036   0.51193
   D51       -1.65698   0.00002   0.00000   0.00038   0.00038  -1.65660
   D52        2.66685   0.00001   0.00000   0.00031   0.00031   2.66716
   D53        0.49830   0.00000   0.00000   0.00033   0.00033   0.49863
   D54       -1.53480   0.00001   0.00000   0.00024   0.00024  -1.53456
   D55        2.57983   0.00000   0.00000   0.00026   0.00026   2.58009
   D56       -2.91246   0.00000   0.00000  -0.00003  -0.00003  -2.91250
   D57        0.95482   0.00000   0.00000  -0.00009  -0.00009   0.95473
   D58        1.26989   0.00000   0.00000  -0.00003  -0.00003   1.26986
   D59       -1.14602   0.00000   0.00000  -0.00008  -0.00008  -1.14610
   D60       -0.84354   0.00000   0.00000  -0.00004  -0.00004  -0.84358
   D61        3.02374   0.00000   0.00000  -0.00009  -0.00009   3.02365
   D62       -2.16064   0.00000   0.00000  -0.00015  -0.00015  -2.16080
   D63       -0.01909   0.00000   0.00000  -0.00029  -0.00029  -0.01938
   D64       -0.50666   0.00000   0.00000   0.00019   0.00019  -0.50646
   D65       -2.82162   0.00000   0.00000   0.00014   0.00014  -2.82148
         Item               Value     Threshold  Converged?
 Maximum Force            0.000236     0.000450     YES
 RMS     Force            0.000031     0.000300     YES
 Maximum Displacement     0.013924     0.001800     NO 
 RMS     Displacement     0.001547     0.001200     NO 
 Predicted change in Energy=-3.084512D-06
 GradGradGradGradGradGradGradGradGradGradGradGradGradGradGradGradGradGrad

                          Input orientation:                          
 ---------------------------------------------------------------------
 Center     Atomic      Atomic             Coordinates (Angstroms)
 Number     Number       Type             X           Y           Z
 ---------------------------------------------------------------------
      1          6           0       -0.738676   -0.322256   -0.019651
      2          6           0        0.236181    0.291330   -0.680207
      3          6           0        0.121137    1.508800   -1.556515
      4          6           0        1.577813    1.971913   -1.628507
      5          6           0        2.324331    0.635619   -1.543416
      6          6           0        3.753349    0.727030   -1.067235
      7          8           0       -2.039074    0.083397   -0.028497
      8          8           0       -0.784058    2.430874   -0.985481
      9          8           0        1.920580    2.760689   -2.732902
     10          8           0        1.558019   -0.126297   -0.603303
     11          8           0        3.742100    1.241763    0.256395
     12          1           0       -0.563852   -1.208429    0.579671
     13          1           0       -0.218106    1.227204   -2.565800
     14          1           0        1.796709    2.564605   -0.734206
     15          1           0        2.308030    0.137370   -2.523650
     16          1           0       -2.082090    0.979018   -0.396405
     17          1           0       -1.007692    3.099894   -1.641835
     18          1           0        1.669468    2.309399   -3.547417
     19          1           0        4.633902    1.501510    0.505375
     20          1           0        4.220381   -0.264126   -1.090169
     21          1           0        4.297910    1.391068   -1.747480
     22         11           0        2.385545   -0.004018    1.685899
 ---------------------------------------------------------------------
                    Distance matrix (angstroms):
                    1          2          3          4          5
     1  C    0.000000
     2  C    1.327844   0.000000
     3  C    2.540472   1.504455   0.000000
     4  C    3.635623   2.350235   1.530216   0.000000
     5  C    3.552660   2.285614   2.369954   1.533040   0.000000
     6  C    4.730404   3.565122   3.747469   2.568602   1.509039
     7  O    1.362229   2.375868   3.005516   4.382738   4.651799
     8  O    2.917981   2.389922   1.412685   2.490494   3.632673
     9  O    4.892640   3.626084   2.487791   1.399766   2.468565
    10  O    2.377784   1.388374   2.376297   2.335363   1.432327
    11  O    4.753916   3.751268   4.058242   2.961438   2.369979
    12  H    1.083998   2.115803   3.523611   4.424630   4.031080
    13  H    3.025673   2.153532   1.101380   2.158340   2.803431
    14  H    3.908035   2.757887   2.144402   1.094977   2.157358
    15  H    3.970351   2.777507   2.756569   2.167959   1.099717
    16  H    1.907884   2.434716   2.545729   3.987331   4.566191
    17  H    3.796705   3.218692   1.952720   2.820878   4.145445
    18  H    5.016962   3.787850   2.646125   1.950516   2.691915
    19  H    5.697927   4.712758   4.961501   3.756915   3.206467
    20  H    5.073622   4.043569   4.490495   3.503262   2.147087
    21  H    5.593574   4.341213   4.182793   2.783965   2.123055
    22  Na   3.573644   3.210211   4.234314   3.942337   3.292622
                    6          7          8          9         10
     6  C    0.000000
     7  O    5.919916   0.000000
     8  O    4.847456   2.828698   0.000000
     9  O    3.204568   5.491863   3.236869   0.000000
    10  O    2.400599   3.648760   3.488625   3.605735   0.000000
    11  O    1.420237   5.902961   4.841730   3.815883   2.716777
    12  H    5.009643   2.053038   3.967709   5.735803   2.659468
    13  H    4.274147   3.325977   2.065558   2.636944   2.972874
    14  H    2.704816   4.622516   2.596417   2.012107   2.704637
    15  H    2.134899   5.012586   4.145736   2.660020   2.078406
    16  H    5.879274   0.969198   2.034646   4.965373   3.809845
    17  H    5.350529   3.572935   0.963536   3.143288   4.250850
    18  H    3.605240   5.575946   3.549375   0.964445   3.822675
    19  H    1.961707   6.842855   5.695670   4.408411   3.652393
    20  H    1.095918   6.358357   5.684927   4.139706   2.710020
    21  H    1.095548   6.694943   5.242922   2.915238   3.334447
    22  Na   3.159916   4.745951   4.807427   5.233125   2.437252
                   11         12         13         14         15
    11  O    0.000000
    12  H    4.964793   0.000000
    13  H    4.862944   3.993224   0.000000
    14  H    2.552596   4.640507   3.033621   0.000000
    15  H    3.317362   4.437283   2.751523   3.058599   0.000000
    16  H    5.866547   2.835965   2.870942   4.203960   4.950424
    17  H    5.442100   4.867621   2.232515   2.995829   4.533008
    18  H    4.461461   5.864784   2.386976   2.827627   2.484667
    19  H    0.961649   5.862246   5.748856   3.273590   4.055311
    20  H    2.075980   5.154508   4.909350   3.742007   2.423459
    21  H    2.084881   5.984124   4.592483   2.942773   2.476655
    22  Na   2.331458   3.372430   5.135353   3.577913   4.212637
                   16         17         18         19         20
    16  H    0.000000
    17  H    2.683942   0.000000
    18  H    5.076710   3.379839   0.000000
    19  H    6.796378   6.244431   5.085831   0.000000
    20  H    6.461258   6.241291   4.378157   2.415415   0.000000
    21  H    6.534492   5.575003   3.315390   2.280448   1.782621
    22  Na   5.026143   5.676455   5.766477   2.952179   3.337789
                   21         22
    21  H    0.000000
    22  Na   4.170311   0.000000
 Symmetry turned off by external request.
 Stoichiometry    C6H10NaO5(1+)
 Framework group  C1[X(C6H10NaO5)]
 Deg. of freedom    60
 Full point group                 C1      NOp   1
 Rotational constants (GHZ):      1.0693886      0.7505621      0.5086059
 Standard basis: 6-31+G(2df,p) (6D, 7F)
 Integral buffers will be    131072 words long.
 Raffenetti 2 integral format.
 Two-electron integral symmetry is turned off.
   438 basis functions,   670 primitive gaussians,   474 cartesian basis functions
    48 alpha electrons       48 beta electrons
       nuclear repulsion energy       821.4684272942 Hartrees.
 NAtoms=   22 NActive=   22 NUniq=   22 SFac= 1.00D+00 NAtFMM=   50 NAOKFM=F Big=F
 ------------------------------------------------------------------------------
 Polarizable Continuum Model (PCM)
 =================================
 Model                : PCM.
 Atomic radii         : UFF (Universal Force Field).
 Polarization charges : Total charges.
 Charge compensation  : None.
 Solution method      : Matrix inversion.
 Cavity type          : Scaled VdW (van der Waals Surface) (Alpha=1.100).
 Cavity algorithm     : GePol (No added spheres)
                        Default sphere list used, NSphG=   22.
                        Lebedev-Laikov grids with approx.  5.0 points / Ang**2.
                        Smoothing algorithm: Karplus/York (Gamma=1.0000).
                        Polarization charges: spherical gaussians, with
                                              point-specific exponents (IZeta= 3).
                        Self-potential: point-specific (ISelfS= 7).
                        Self-field    : sphere-specific E.n sum rule (ISelfD= 2).
 1st derivatives      : Analytical E(r).r(x)/FMM algorithm (CHGder, D1EAlg=3).
                        Cavity 1st derivative terms included.
 Solvent              : Ethanol, Eps=  24.852000 Eps(inf)=   1.852593
 ------------------------------------------------------------------------------
 One-electron integrals computed using PRISM.
 NBasis=   438 RedAO= T  NBF=   438
 NBsUse=   438 1.00D-06 NBFU=   438
 Initial guess read from the read-write file.
 B after Tr=     0.000000    0.000000    0.000000
         Rot=    1.000000    0.000000    0.000000    0.000000 Ang=   0.00 deg.
 Requested convergence on RMS density matrix=1.00D-06 within 128 cycles.
 Requested convergence on MAX density matrix=1.00D-04.
 Requested convergence on             energy=1.00D-04.
 No special actions if energy rises.
 Error on total polarization charges =  0.01022
 SCF Done:  E(RM062X) =  -772.782506994     A.U. after    5 cycles
             Convg  =    0.4098D-06             -V/T =  2.0059
 QCSCF skips out because SCF is already converged.
 D1PCM: PCM CHGder 1st derivatives, ID1Alg=3 FixD1E=F DoIter=F DoCFld=F I1PDM=0.
 Calling FoFJK, ICntrl=      2127 FMM=F ISym2X=0 I1Cent= 0 IOpClX= 0 NMat=1 NMatS=1 NMatT=0.
 -------------------------------------------------------------------
 Center     Atomic                   Forces (Hartrees/Bohr)
 Number     Number              X              Y              Z
 -------------------------------------------------------------------
      1        6           0.000012392   -0.000013008   -0.000000473
      2        6          -0.000039788    0.000003361   -0.000009969
      3        6          -0.000077633    0.000024904    0.000043906
      4        6           0.000129792   -0.000057556   -0.000009245
      5        6          -0.000055788    0.000002341    0.000033361
      6        6           0.000015555   -0.000013351   -0.000025967
      7        8           0.000000686   -0.000012899    0.000019777
      8        8          -0.000004004    0.000019832    0.000047845
      9        8          -0.000316657    0.000204595    0.000062480
     10        8           0.000027195   -0.000008931   -0.000048959
     11        8           0.000001465   -0.000032271   -0.000027540
     12        1           0.000008276   -0.000023085   -0.000019883
     13        1           0.000010223    0.000035671    0.000015424
     14        1           0.000081791   -0.000026954   -0.000015790
     15        1          -0.000022458    0.000026986   -0.000022865
     16        1           0.000008411    0.000001372    0.000022805
     17        1           0.000004135    0.000015303    0.000053372
     18        1           0.000189374   -0.000062236   -0.000002039
     19        1           0.000016329   -0.000034937   -0.000022593
     20        1          -0.000002436   -0.000006295   -0.000047213
     21        1          -0.000003878    0.000004083   -0.000018449
     22       11           0.000017021   -0.000046924   -0.000027987
 -------------------------------------------------------------------
 Cartesian Forces:  Max     0.000316657 RMS     0.000062018

 GradGradGradGradGradGradGradGradGradGradGradGradGradGradGradGradGradGrad
 Berny optimization.
 Using GEDIIS/GDIIS optimizer.
 Internal  Forces:  Max     0.000140525 RMS     0.000023169
 Search for a local minimum.
 Step number   2 out of a maximum of  132
 All quantities printed in internal units (Hartrees-Bohrs-Radians)
 Mixed Optimization -- En-DIIS/RFO-DIIS
 Swaping is turned off.
 Update second derivatives using D2CorX and points    1    2
 DE= -5.16D-06 DEPred=-3.08D-06 R= 1.67D+00
 SS=  1.41D+00  RLast= 1.85D-02 DXNew= 5.0454D-01 5.5638D-02
 Trust test= 1.67D+00 RLast= 1.85D-02 DXMaxT set to 3.00D-01
 ITU=  1  0
     Eigenvalues ---    0.00427   0.00641   0.01122   0.01357   0.01524
     Eigenvalues ---    0.01552   0.02027   0.02192   0.02789   0.02997
     Eigenvalues ---    0.03044   0.03835   0.04471   0.04862   0.05207
     Eigenvalues ---    0.05409   0.05774   0.05804   0.06320   0.06546
     Eigenvalues ---    0.06966   0.07347   0.07487   0.08332   0.08909
     Eigenvalues ---    0.09259   0.09931   0.11964   0.12753   0.14663
     Eigenvalues ---    0.16000   0.16000   0.16000   0.16013   0.16649
     Eigenvalues ---    0.19536   0.21229   0.22000   0.24993   0.27352
     Eigenvalues ---    0.27920   0.30237   0.30539   0.33532   0.33713
     Eigenvalues ---    0.34138   0.34179   0.34285   0.35516   0.35746
     Eigenvalues ---    0.40497   0.43590   0.45150   0.45660   0.52500
     Eigenvalues ---    0.53542   0.54537   0.54720   0.55120   0.60018
 En-DIIS/RFO-DIIS IScMMF=        0 using points:     2    1
 RFO step:  Lambda=-8.82712280D-07.
 DidBck=F Rises=F RFO-DIIS coefs:    3.09172   -2.09172
 Iteration  1 RMS(Cart)=  0.00422775 RMS(Int)=  0.00007128
 Iteration  2 RMS(Cart)=  0.00007021 RMS(Int)=  0.00000023
 Iteration  3 RMS(Cart)=  0.00000001 RMS(Int)=  0.00000023
 Variable       Old X    -DE/DX   Delta X   Delta X   Delta X     New X
                                  (DIIS)     (GDIIS)  (Total)
    R1        2.50926   0.00000   0.00000   0.00001   0.00001   2.50927
    R2        2.57424   0.00000   0.00000   0.00001   0.00001   2.57425
    R3        2.04846   0.00000   0.00000   0.00002   0.00002   2.04848
    R4        2.84301  -0.00001  -0.00009   0.00001  -0.00008   2.84293
    R5        2.62365   0.00002  -0.00016   0.00027   0.00011   2.62376
    R6        2.89169   0.00005   0.00020   0.00040   0.00060   2.89229
    R7        2.66959   0.00001   0.00000   0.00009   0.00009   2.66967
    R8        2.08131  -0.00001   0.00000  -0.00007  -0.00007   2.08124
    R9        2.89703   0.00000   0.00021  -0.00024  -0.00003   2.89699
   R10        2.64517   0.00000   0.00000   0.00002   0.00002   2.64519
   R11        2.06921  -0.00003   0.00000  -0.00025  -0.00024   2.06896
   R12        2.85167   0.00001   0.00000   0.00007   0.00007   2.85174
   R13        2.70671  -0.00001  -0.00004  -0.00007  -0.00011   2.70660
   R14        2.07816   0.00000  -0.00001  -0.00002  -0.00002   2.07814
   R15        2.68386  -0.00001   0.00002  -0.00010  -0.00008   2.68378
   R16        2.07098   0.00000   0.00000   0.00001   0.00001   2.07100
   R17        2.07029   0.00000   0.00000  -0.00001   0.00000   2.07028
   R18        1.83152   0.00000   0.00000   0.00003   0.00003   1.83154
   R19        1.82082   0.00000   0.00000  -0.00001   0.00000   1.82081
   R20        1.82254   0.00001   0.00000   0.00007   0.00007   1.82261
   R21        4.60574   0.00000  -0.00009  -0.00009  -0.00018   4.60556
   R22        1.81725   0.00000   0.00000   0.00001   0.00001   1.81726
   R23        4.40582   0.00000   0.00001   0.00005   0.00006   4.40588
    A1        2.16519   0.00000   0.00000   0.00000   0.00000   2.16519
    A2        2.13459   0.00000   0.00000   0.00001   0.00000   2.13459
    A3        1.98339   0.00000   0.00000   0.00000   0.00000   1.98339
    A4        2.22379   0.00002   0.00016   0.00011   0.00027   2.22406
    A5        2.13226  -0.00001   0.00013  -0.00017  -0.00005   2.13221
    A6        1.92676  -0.00001  -0.00028   0.00004  -0.00023   1.92653
    A7        1.77167   0.00000   0.00030  -0.00010   0.00020   1.77187
    A8        1.91958   0.00000  -0.00008   0.00031   0.00023   1.91980
    A9        1.92882   0.00001  -0.00002   0.00014   0.00012   1.92894
   A10        2.01689   0.00000  -0.00013   0.00002  -0.00011   2.01678
   A11        1.90443  -0.00001   0.00002  -0.00066  -0.00063   1.90380
   A12        1.91764   0.00001  -0.00007   0.00027   0.00020   1.91785
   A13        1.76923  -0.00001  -0.00117   0.00079  -0.00038   1.76885
   A14        2.02725  -0.00003  -0.00131   0.00024  -0.00107   2.02618
   A15        1.89198   0.00001  -0.00034   0.00061   0.00027   1.89226
   A16        1.99955   0.00005  -0.00048   0.00169   0.00120   2.00075
   A17        1.90619  -0.00001   0.00235  -0.00167   0.00069   1.90687
   A18        1.86546  -0.00002   0.00109  -0.00170  -0.00061   1.86485
   A19        2.01069   0.00000  -0.00016   0.00058   0.00042   2.01111
   A20        1.81273   0.00001   0.00030  -0.00008   0.00022   1.81295
   A21        1.91583  -0.00001   0.00008  -0.00041  -0.00034   1.91550
   A22        1.90895   0.00001  -0.00016   0.00019   0.00002   1.90898
   A23        1.89943   0.00000  -0.00005  -0.00004  -0.00009   1.89934
   A24        1.91357  -0.00001   0.00000  -0.00026  -0.00026   1.91331
   A25        1.88446  -0.00001  -0.00001  -0.00019  -0.00020   1.88426
   A26        1.92002   0.00000  -0.00001   0.00006   0.00005   1.92007
   A27        1.88756   0.00000   0.00001   0.00010   0.00011   1.88767
   A28        1.92907   0.00000   0.00003   0.00000   0.00003   1.92910
   A29        1.94222   0.00000  -0.00002   0.00004   0.00002   1.94224
   A30        1.90008   0.00000   0.00000  -0.00001   0.00000   1.90007
   A31        1.89654  -0.00001   0.00000  -0.00014  -0.00014   1.89640
   A32        1.90347  -0.00001   0.00000  -0.00016  -0.00016   1.90331
   A33        1.91654   0.00001  -0.00001   0.00016   0.00015   1.91669
   A34        1.88915   0.00001  -0.00031   0.00045   0.00015   1.88930
   A35        1.93927   0.00000   0.00015  -0.00026  -0.00011   1.93916
   A36        1.99121   0.00000   0.00001  -0.00011  -0.00010   1.99111
   A37        1.90906   0.00000   0.00001  -0.00009  -0.00008   1.90898
   A38        1.96317   0.00000   0.00005   0.00002   0.00007   1.96324
   A39        2.12371   0.00000   0.00003  -0.00001   0.00002   2.12373
   A40        1.21159   0.00000   0.00001   0.00001   0.00002   1.21161
    D1       -0.01098   0.00000  -0.00025   0.00047   0.00022  -0.01076
    D2        3.09817   0.00000   0.00023  -0.00030  -0.00007   3.09810
    D3        3.12497   0.00000  -0.00026   0.00063   0.00037   3.12533
    D4       -0.04907   0.00000   0.00022  -0.00014   0.00007  -0.04899
    D5       -0.23971   0.00000  -0.00002   0.00051   0.00049  -0.23922
    D6        2.90708   0.00000  -0.00001   0.00037   0.00036   2.90744
    D7        2.83039   0.00000  -0.00094   0.00032  -0.00062   2.82976
    D8        0.68612   0.00000  -0.00092   0.00021  -0.00071   0.68540
    D9       -1.43418  -0.00001  -0.00077  -0.00043  -0.00119  -1.43537
   D10       -0.28191   0.00000  -0.00138   0.00102  -0.00036  -0.28227
   D11       -2.42618   0.00001  -0.00136   0.00091  -0.00045  -2.42663
   D12        1.73671  -0.00001  -0.00121   0.00028  -0.00093   1.73578
   D13        3.02469   0.00000   0.00005   0.00054   0.00060   3.02528
   D14       -1.05924   0.00000  -0.00006   0.00055   0.00050  -1.05874
   D15       -0.14440   0.00000   0.00047  -0.00011   0.00036  -0.14404
   D16        2.05487   0.00000   0.00036  -0.00010   0.00026   2.05512
   D17        0.55929  -0.00001   0.00144  -0.00126   0.00018   0.55947
   D18        2.73801   0.00003  -0.00080   0.00159   0.00079   2.73880
   D19       -1.44574   0.00000  -0.00053   0.00001  -0.00052  -1.44626
   D20        2.63528  -0.00001   0.00148  -0.00094   0.00053   2.63582
   D21       -1.46918   0.00003  -0.00077   0.00191   0.00114  -1.46804
   D22        0.63025   0.00000  -0.00049   0.00033  -0.00016   0.63009
   D23       -1.47721  -0.00001   0.00131  -0.00111   0.00020  -1.47701
   D24        0.70151   0.00003  -0.00093   0.00174   0.00081   0.70232
   D25        2.80094  -0.00001  -0.00066   0.00016  -0.00050   2.80045
   D26       -2.91128  -0.00001   0.00011  -0.00037  -0.00026  -2.91154
   D27        1.37948  -0.00001  -0.00013  -0.00047  -0.00060   1.37887
   D28       -0.78433   0.00001  -0.00001   0.00018   0.00017  -0.78416
   D29       -2.75328  -0.00001  -0.00121   0.00085  -0.00037  -2.75365
   D30       -0.66604   0.00001  -0.00129   0.00134   0.00005  -0.66599
   D31        1.37889   0.00000  -0.00109   0.00080  -0.00029   1.37859
   D32        1.33268   0.00001   0.00153  -0.00099   0.00053   1.33322
   D33       -2.86326   0.00002   0.00144  -0.00050   0.00095  -2.86231
   D34       -0.81834   0.00001   0.00164  -0.00104   0.00061  -0.81773
   D35       -0.75882   0.00001  -0.00126   0.00128   0.00002  -0.75880
   D36        1.32842   0.00002  -0.00134   0.00177   0.00043   1.32886
   D37       -2.90984   0.00001  -0.00114   0.00123   0.00009  -2.90975
   D38       -0.93848  -0.00014  -0.02114  -0.01075  -0.03189  -0.97037
   D39        1.11701  -0.00013  -0.02413  -0.00815  -0.03228   1.08473
   D40       -3.05212  -0.00013  -0.02067  -0.01042  -0.03109  -3.08321
   D41        1.08817   0.00001  -0.00017   0.00035   0.00018   1.08835
   D42       -3.08851   0.00001  -0.00015   0.00027   0.00012  -3.08839
   D43       -1.01533   0.00001  -0.00015   0.00036   0.00021  -1.01512
   D44       -0.94513  -0.00001  -0.00035  -0.00004  -0.00039  -0.94552
   D45        1.16137  -0.00001  -0.00033  -0.00012  -0.00044   1.16092
   D46       -3.04863  -0.00001  -0.00032  -0.00003  -0.00035  -3.04899
   D47       -3.03531   0.00000  -0.00023   0.00019  -0.00003  -3.03535
   D48       -0.92881   0.00000  -0.00021   0.00012  -0.00009  -0.92890
   D49        1.14437   0.00000  -0.00020   0.00020   0.00000   1.14437
   D50        0.51193   0.00000   0.00075  -0.00083  -0.00008   0.51185
   D51       -1.65660   0.00000   0.00079  -0.00077   0.00003  -1.65657
   D52        2.66716   0.00001   0.00066  -0.00009   0.00056   2.66772
   D53        0.49863   0.00001   0.00070  -0.00003   0.00067   0.49930
   D54       -1.53456   0.00001   0.00050  -0.00019   0.00031  -1.53425
   D55        2.58009   0.00001   0.00054  -0.00012   0.00042   2.58051
   D56       -2.91250   0.00000  -0.00007  -0.00004  -0.00011  -2.91261
   D57        0.95473   0.00000  -0.00018   0.00005  -0.00013   0.95461
   D58        1.26986   0.00000  -0.00007   0.00000  -0.00007   1.26979
   D59       -1.14610   0.00000  -0.00018   0.00010  -0.00008  -1.14618
   D60       -0.84358   0.00000  -0.00008  -0.00001  -0.00009  -0.84367
   D61        3.02365   0.00000  -0.00019   0.00008  -0.00011   3.02354
   D62       -2.16080  -0.00001  -0.00032  -0.00022  -0.00054  -2.16133
   D63       -0.01938   0.00000  -0.00061   0.00010  -0.00051  -0.01989
   D64       -0.50646   0.00000   0.00041  -0.00017   0.00024  -0.50622
   D65       -2.82148   0.00000   0.00029  -0.00003   0.00026  -2.82122
         Item               Value     Threshold  Converged?
 Maximum Force            0.000141     0.000450     YES
 RMS     Force            0.000023     0.000300     YES
 Maximum Displacement     0.041075     0.001800     NO 
 RMS     Displacement     0.004231     0.001200     NO 
 Predicted change in Energy=-6.542138D-06
 GradGradGradGradGradGradGradGradGradGradGradGradGradGradGradGradGradGrad

                          Input orientation:                          
 ---------------------------------------------------------------------
 Center     Atomic      Atomic             Coordinates (Angstroms)
 Number     Number       Type             X           Y           Z
 ---------------------------------------------------------------------
      1          6           0       -0.738912   -0.322709   -0.018919
      2          6           0        0.235267    0.291397   -0.680003
      3          6           0        0.119627    1.509155   -1.555759
      4          6           0        1.576328    1.973203   -1.627956
      5          6           0        2.323085    0.637001   -1.543811
      6          6           0        3.752468    0.727818   -1.068493
      7          8           0       -2.039464    0.082482   -0.026751
      8          8           0       -0.785920    2.430813   -0.984499
      9          8           0        1.916739    2.763330   -2.732124
     10          8           0        1.557357   -0.125796   -0.604025
     11          8           0        3.741908    1.241665    0.255440
     12          1           0       -0.563329   -1.208905    0.580165
     13          1           0       -0.219069    1.227919   -2.565286
     14          1           0        1.795223    2.566083   -0.733937
     15          1           0        2.306142    0.139441   -2.524369
     16          1           0       -2.082976    0.978022   -0.394835
     17          1           0       -1.009484    3.099990   -1.640713
     18          1           0        1.691204    2.300266   -3.547556
     19          1           0        4.633905    1.501023    0.504137
     20          1           0        4.219322   -0.263407   -1.092325
     21          1           0        4.296802    1.392214   -1.748566
[...]
 80596,0.00001115,-0.00001502,0.00004347,0.02121768,-0.15281248,0.12779
 324,-0.00137806,-0.00023572,0.00064314,0.00223354,0.00165855,0.0005213
 5,-0.07719815,-0.02236103,-0.07990015,-0.01151023,-0.00997499,-0.02980
 956,0.00158531,-0.00110162,0.00001474,-0.00013605,-0.00008977,0.000158
 64,0.00133659,-0.00036470,-0.00044393,0.00056363,0.01654997,0.02899190
 ,0.00350165,0.00207274,-0.00020170,0.00026693,0.00036009,0.00044997,-0
 .00014078,0.00025179,0.00000875,-0.00016010,-0.00029862,-0.00034914,0.
 08508808,0.00507790,-0.00178612,0.00027700,0.00670651,0.00467615,0.027
 57879,-0.01916016,-0.05936997,-0.04859038,-0.00790504,-0.00170555,-0.0
 1186907,-0.00049234,-0.00061463,0.00035035,-0.00009260,0.00027209,-0.0
 0008576,-0.00315286,0.00228174,-0.00070529,0.00432269,-0.01469461,-0.0
 2806356,0.00238638,0.00083168,-0.00040362,0.00042313,-0.00161596,-0.00
 062425,-0.00006550,0.00006528,0.00000334,-0.00023813,-0.00079303,-0.00
 128061,0.01502564,0.07194259,-0.00341381,0.00084380,0.00117382,-0.0051
 6309,0.00145891,-0.01684250,-0.07498242,-0.05595216,-0.25332029,0.0012
 8261,0.00148157,-0.00046080,-0.00023686,0.00040699,-0.00062606,-0.0001
 5372,0.00021172,0.00003364,0.00217662,-0.00075777,-0.00021691,0.004095
 98,-0.01314653,-0.01355163,0.00032227,0.00013274,0.00296735,-0.0012823
 4,0.00076682,-0.00081693,0.00003690,-0.00001094,0.00004184,0.00012091,
 0.00039852,0.00040748,0.07633785,0.06396776,0.28071636,-0.00004972,-0.
 00013757,0.00046417,-0.00030843,0.00153841,-0.00082500,-0.01098407,-0.
 01984951,-0.02534584,-0.06033034,-0.03257303,-0.04869685,0.00404515,0.
 01241769,0.01563493,0.00041710,-0.00012645,0.00082692,0.00023787,0.000
 02236,0.00006008,0.00483597,0.00108153,0.00009260,0.00311910,0.0035825
 0,0.01069074,0.00050481,-0.00128476,-0.00067283,-0.00150574,0.00038779
 ,-0.00076072,-0.00011652,-0.00011572,-0.00002218,-0.00487353,-0.001936
 26,0.00054529,0.06600417,0.00000230,-0.00003487,0.00004675,-0.00025652
 ,-0.00001215,-0.00043823,-0.00044118,-0.00420222,-0.00815514,-0.033321
 20,-0.13463490,-0.12604940,-0.00447837,-0.01548813,-0.02251251,-0.0007
 4624,0.00002917,-0.00124018,-0.00004837,0.00002872,0.00000788,0.000654
 09,0.00106024,0.00115164,0.00359799,0.01128987,0.02536276,0.00043759,0
 .00138104,0.00124809,-0.00017417,0.00059209,0.00044255,-0.00002475,-0.
 00003169,-0.00001466,-0.00111881,-0.00017107,0.00059625,0.03511901,0.1
 4507394,-0.00003705,-0.00021128,0.00007212,-0.00059013,-0.00063500,0.0
 0016336,-0.00070547,-0.00161145,0.00085573,-0.04344280,-0.11591898,-0.
 21650270,0.00157113,-0.00069942,0.00127656,-0.00059772,-0.00075493,-0.
 00068778,0.00009936,0.00004556,-0.00005375,0.00040374,0.00101608,0.000
 66229,-0.00346686,-0.00879724,-0.03480840,-0.00078512,-0.00095633,0.00
 085131,-0.00168173,0.00123834,-0.00014663,-0.00003155,0.00001735,0.000
 03697,0.00081253,-0.00009372,0.00052991,0.04683727,0.12354990,0.249422
 16,-0.00070672,-0.00015100,0.00002199,0.00251787,-0.00032029,0.0008238
 1,0.00095063,0.00023096,0.00035378,0.00147311,0.00935676,0.01418464,-0
 .05425147,-0.00216815,-0.01142870,0.00427405,-0.01321035,-0.02581183,-
 0.00021616,-0.00016612,-0.00022411,-0.00015675,-0.00013563,-0.00029862
 ,0.00028675,-0.00190851,-0.00009367,-0.00374807,0.00280820,0.02418787,
 -0.00824006,-0.00154788,-0.00406098,0.00005521,0.00008630,0.00010538,-
 0.00043854,0.00041219,0.00014188,-0.00130004,0.00198252,-0.00025527,0.
 05770471,-0.00033881,0.00001421,0.00005309,0.00276204,-0.00068570,0.00
 074736,-0.00148587,0.00020350,-0.00011138,-0.00121544,-0.01458688,-0.0
 2679997,-0.00320491,-0.10857279,-0.11260794,0.00265743,-0.00065147,-0.
 00106608,-0.00055906,-0.00002931,-0.00024432,0.00041864,0.00021783,0.0
 0025272,-0.00088271,0.00343635,0.00026963,-0.00601673,0.00878060,0.026
 06442,-0.00044096,0.00082226,-0.00005435,0.00008047,0.00012927,0.00012
 289,0.00064420,0.00024793,-0.00003339,0.00324436,-0.00357859,0.0008248
 2,0.00422564,0.11436365,-0.00049781,-0.00020976,0.00000967,-0.00345351
 ,0.00099293,-0.00137102,0.00029148,0.00027290,-0.00011663,-0.00057275,
 0.00121505,0.00054104,-0.01185585,-0.10749691,-0.24324290,0.00028592,-
 0.00661142,-0.00873856,0.00184264,-0.00037589,0.00021042,0.00014485,-0
 .00032999,0.00010956,-0.00001934,-0.00057702,0.00292735,0.01242672,0.0
 0190565,-0.02598408,-0.00242184,-0.00049775,0.00020497,-0.00007454,-0.
 00007980,-0.00005223,0.00039703,-0.00010759,0.00018032,-0.00010619,0.0
 0085146,0.00041387,0.00405124,0.11137360,0.27545237,-0.01078442,0.0450
 9424,-0.01946728,-0.00045879,0.00100656,-0.00025508,-0.00492061,0.0013
 9414,0.00355622,-0.00046916,-0.00046218,0.00016226,0.00010673,-0.00002
 555,0.00015331,-0.00007002,-0.00011430,-0.00015763,-0.04354186,-0.0128
 8155,0.01101885,-0.00015462,0.00169204,-0.00194432,0.00043588,0.000289
 78,-0.00046507,0.00058821,-0.00036834,-0.00062346,0.00010761,0.0000223
 5,0.00013377,-0.00564275,0.00145357,0.00092975,0.00025457,-0.00040403,
 -0.00018420,0.00002896,0.00000880,-0.00004001,0.00002652,0.00000939,-0
 .00008972,0.06264637,0.00805797,-0.01446962,0.00591205,-0.00134424,0.0
 0132185,-0.00022395,-0.00332057,0.00597322,0.00108292,0.00083130,-0.00
 131841,-0.00008296,0.00097426,0.00136765,-0.00109115,-0.00000254,-0.00
 034323,0.00019322,0.03137646,-0.41881661,0.17039494,0.00289079,-0.0024
 4168,-0.00190340,-0.00005953,-0.00011906,0.00006220,-0.00408575,-0.000
 62109,0.00092131,-0.00004548,-0.00004175,-0.00003927,-0.00014231,0.002
 48364,-0.00094223,0.00053512,-0.00067412,-0.00034592,-0.00015947,-0.00
 000866,-0.00004859,-0.00002443,-0.00012459,0.00020181,-0.03669865,0.42
 899049,-0.00487789,0.00165029,-0.00104318,0.00084046,0.00006846,0.0009
 5318,0.00349205,-0.00236458,-0.00121538,-0.00008257,0.00007909,-0.0000
 3668,-0.00062037,-0.00076186,0.00069087,-0.00003550,0.00013932,-0.0000
 7339,-0.00596773,0.17357560,-0.08212477,-0.00306696,-0.00019735,-0.000
 76102,-0.00011524,0.00004868,-0.00001853,0.00323151,-0.00050958,-0.000
 82454,0.00005068,0.00003166,0.00001944,-0.00037740,0.00091727,0.002036
 27,-0.00007364,0.00078652,-0.00039310,-0.00006954,-0.00001041,0.000031
 18,0.00002817,0.00006539,-0.00016868,0.00749459,-0.17442367,0.08368300
 ,-0.00117424,0.00041123,0.00013211,-0.00116906,0.00118069,0.00174992,-
 0.00902764,0.02017461,-0.01835084,-0.00086733,0.00090365,-0.00107695,0
 .00010081,0.00090351,-0.00036325,-0.00012343,-0.00014153,-0.00003968,-
 0.00024459,-0.00204104,0.00046220,-0.04486178,0.08220265,-0.05128452,0
 .00063368,-0.00034993,-0.00001357,-0.00063278,0.00019524,0.00025023,0.
 00009942,-0.00000114,0.00010887,0.00003419,-0.00009273,0.00004164,0.00
 127986,-0.00042112,0.00056753,-0.00021882,-0.00000273,-0.00003462,0.00
 000145,-0.00004766,-0.00001915,0.00194638,0.00109919,0.00018431,0.0544
 2722,0.00038041,0.00024181,-0.00002478,0.00298423,-0.00212247,-0.00264
 510,0.00655139,-0.02136844,0.01826074,-0.00007748,0.00172480,0.0002267
 6,-0.00060071,-0.00064167,0.00036393,0.00008570,0.00024551,0.00000692,
 -0.00048059,0.00036597,-0.00027485,0.09577203,-0.25064820,0.21596681,0
 .00028540,-0.00028664,0.00004501,0.00044355,-0.00067177,0.00006328,-0.
 00007941,-0.00003542,-0.00009282,0.00010269,0.00018324,0.00019892,-0.0
 0159195,0.00122928,0.00070580,0.00010264,-0.00007409,-0.00006516,0.000
 05389,-0.00000841,-0.00000805,-0.00003849,-0.00118489,0.00084548,-0.10
 404320,0.27292869,0.00010264,-0.00019403,0.00049365,0.00285234,-0.0006
 8920,-0.00158986,0.00821382,-0.01964468,0.01107788,0.00025401,-0.00120
 560,0.00028547,0.00012142,0.00024436,0.00011562,-0.00004083,-0.0001642
 0,-0.00005107,-0.00046084,-0.00013573,0.00021928,-0.07885889,0.2572651
 1,-0.27638275,-0.00051619,0.00056602,-0.00042635,0.00065042,-0.0008965
 2,0.00083740,0.00006293,0.00001350,0.00006873,-0.00008944,-0.00006461,
 0.00003312,0.00054363,-0.00168729,0.00038151,-0.00018663,0.00012222,0.
 00000199,0.00000127,-0.00002266,-0.00004146,-0.00026056,0.00004070,-0.
 00057845,0.06739388,-0.23343678,0.26570864,-0.00038554,0.00026457,-0.0
 0018319,0.00079080,-0.00062376,-0.00026798,0.00154365,0.00197605,0.003
 20783,0.00008818,0.00483506,0.01229548,0.00019044,-0.00049192,-0.00174
 478,-0.00023309,-0.00001155,-0.00030698,0.00006905,-0.00002336,-0.0000
 1155,-0.00010517,-0.00057297,-0.00077800,-0.03312928,-0.06951939,-0.10
 005422,-0.00066191,-0.00007721,0.00083322,0.00009144,0.00003045,0.0003
 3295,0.00006803,0.00005896,-0.00001612,-0.00024922,-0.00023861,-0.0002
 8361,0.00028572,-0.00115346,0.00166532,-0.00002187,0.00052263,-0.00053
 859,-0.00010322,-0.00006464,0.00006824,-0.00020065,0.00020856,0.000157
 21,0.03202434,-0.00008001,0.00001505,0.00001679,-0.00059925,0.00006388
 ,-0.00012226,0.00053635,0.00084937,0.00196118,0.00520309,0.00916336,0.
 02731403,-0.00078167,0.00184142,0.00388544,0.00041526,-0.00002056,0.00
 005011,0.00024718,-0.00007730,-0.00000794,0.00002857,-0.00044317,-0.00
 055909,-0.06993232,-0.15919308,-0.22478389,0.00057032,-0.00032125,-0.0
 0121963,-0.00017949,-0.00018481,-0.00035139,-0.00000251,0.00000227,0.0
 0002549,-0.00002478,-0.00011272,-0.00067610,-0.00081058,-0.00136614,0.
 00322459,0.00038381,-0.00067153,-0.00072002,-0.00002998,0.00002025,-0.
 00000617,0.00008285,0.00011518,-0.00011985,0.06486751,0.15030692,0.000
 67216,-0.00046269,0.00022028,-0.00031552,-0.00023631,0.00053641,0.0009
 0461,-0.00154953,0.00217370,-0.00688202,-0.01659587,-0.03451316,-0.000
 76704,0.00050812,0.00087105,-0.00040026,-0.00031640,-0.00036028,-0.000
 58438,0.00015363,-0.00002954,-0.00068353,0.00033458,0.00026253,-0.0798
 0460,-0.17900857,-0.37502388,-0.00066678,-0.00122529,0.00142445,0.0001
 0069,0.00013570,0.00036636,-0.00010067,-0.00004710,0.00006489,0.001860
 62,0.00065634,-0.00034244,0.00170765,0.00439610,-0.00219078,-0.0011093
 9,0.00115300,-0.00080228,0.00013841,0.00001448,-0.00000489,0.00030720,
 -0.00010962,-0.00009297,0.08574076,0.19215315,0.40755384,-0.00002004,0
 .00000704,-0.00000035,-0.00009619,0.00012906,-0.00000616,-0.00010497,-
 0.00010103,0.00002150,0.00020098,0.00012458,-0.00009029,-0.00001554,0.
 00001965,0.00089230,0.00279583,0.00302917,0.00518384,0.00010397,-0.000
 00928,0.00000134,0.00015494,-0.00004940,-0.00003303,0.00006417,-0.0001
 1115,0.00000436,0.00065639,0.00002710,-0.00061239,-0.47355315,-0.13772
 260,-0.13086438,-0.00000024,-0.00000269,-0.00001026,-0.00000569,0.0000
 0887,0.00001767,-0.00001763,-0.00013055,0.00002833,0.00033898,0.000063
 50,0.00032308,-0.00001950,-0.00000082,-0.00000147,-0.00001637,0.000010
 25,-0.00001185,-0.00002749,0.00006925,-0.00004126,0.46943446,-0.000016
 00,0.00002050,-0.00001818,-0.00011420,-0.00002401,-0.00004709,-0.00015
 401,0.00001220,0.00014681,0.00017583,0.00036179,-0.00002363,0.00087461
 ,-0.00142389,-0.00059439,-0.01250518,-0.00613379,-0.00435377,0.0000472
 9,-0.00000293,0.00000007,0.00014280,-0.00007922,-0.00005231,0.00003376
 ,-0.00004148,0.00034776,0.00017553,0.00016879,-0.00041671,-0.12057151,
 -0.04186473,-0.04766862,0.00000039,0.00000155,-0.00000817,0.00007591,0
 .00000316,-0.00001030,-0.00017356,0.00036254,0.00004191,-0.00023211,0.
 00031773,0.00003031,-0.00001688,-0.00000334,0.00000808,-0.00001410,0.0
 0002179,-0.00000685,-0.00001689,-0.00003849,0.00000362,0.13324439,0.04
 777401,-0.00008131,0.00001521,-0.00001684,-0.00052333,0.00020030,-0.00
 001318,0.00002412,0.00001581,0.00000436,0.00048015,-0.00039323,-0.0000
 9253,0.00113785,-0.00283214,-0.00790902,-0.03830145,-0.01116928,-0.015
 83275,0.00021998,-0.00007148,-0.00000956,0.00002574,-0.00004746,0.0000
 3335,0.00006614,0.00004304,0.00009788,0.00174808,0.00053028,0.00121088
 ,-0.08561537,-0.03905184,-0.06548228,-0.00000528,-0.00000068,0.0000063
 3,0.00004900,0.00001736,0.00002546,-0.00011160,0.00024028,0.00005910,-
 0.00184905,-0.00010786,-0.00037786,-0.00001240,0.00002270,-0.00001590,
 -0.00000586,-0.00000372,-0.00000748,-0.00000276,-0.00005198,0.00002648
 ,0.12233121,0.05194909,0.08537290,0.00020339,-0.00018160,0.00011290,0.
 00000896,0.00034245,-0.00015883,0.00043942,0.00170293,-0.00009552,-0.0
 0524345,-0.00436488,-0.00075727,-0.01615417,0.03136444,-0.00297281,-0.
 09937143,0.09931298,0.00028985,-0.00006917,-0.00002500,-0.00002260,-0.
 00128550,0.00016882,0.00030970,0.00053231,0.00059122,-0.00083342,0.002
 71810,-0.00009109,0.00025875,0.00430733,-0.00074794,0.00067003,-0.0000
 2188,-0.00000395,0.00002950,-0.00006458,-0.00010869,-0.00005603,0.0002
 7249,-0.00018534,0.00019344,0.00110362,-0.00034120,0.00023000,0.000075
 23,0.00009390,-0.00003943,0.00006445,-0.00009781,0.00007056,0.00007435
 ,-0.00000809,0.00015797,0.00000846,-0.00062014,0.00015895,0.10412764,-
 0.00004712,0.00000274,0.00002103,-0.00014017,0.00022954,-0.00003533,-0
 .00024074,0.00015114,0.00010216,-0.00134975,0.00071853,0.00031702,-0.0
 0257322,0.00276558,0.00090193,0.10048455,-0.26509823,0.00573647,0.0001
 4142,-0.00003892,-0.00000595,-0.00004641,-0.00001088,-0.00004465,0.000
 23153,-0.00000573,-0.00006793,0.00116031,0.00052239,-0.00053901,0.0030
 8260,-0.00817467,-0.01339789,-0.00000581,-0.00000206,-0.00000556,0.000
 01897,0.00000861,-0.00001055,-0.00020689,0.00011388,-0.00001529,0.0008
 2916,0.00047410,0.00027612,-0.00001532,0.00001041,-0.00000873,-0.00003
 719,0.00000845,-0.00000715,0.00000107,0.00002042,-0.00004113,0.0007698
 3,-0.00012346,-0.00026037,-0.11161644,0.28504549,0.00014292,-0.0000965
 7,0.00004171,0.00010763,0.00009706,-0.00008972,0.00030905,0.00076013,-
 0.00021852,-0.00248575,-0.00172639,0.00024912,-0.00382994,0.01127823,-
 0.00002379,-0.00283711,0.00860064,-0.04678949,-0.00016235,0.00002625,-
 0.00000188,-0.00069844,0.00013390,0.00018843,0.00000895,0.00002850,-0.
 00004875,0.00027678,-0.00078005,0.00046914,0.01467306,-0.03898753,-0.0
 1793089,-0.00000747,-0.00000778,0.00001334,-0.00006863,-0.00006989,-0.
 00000618,0.00000608,0.00002519,-0.00001602,0.00022334,0.00045831,0.000
 05446,0.00004863,0.00003532,-0.00001509,0.00005414,-0.00005125,0.00003
 703,0.00005658,-0.00005930,0.00010839,0.00128401,-0.00005678,0.0006846
 4,0.00127541,0.00544532,0.06172571,-0.00014451,0.00030094,-0.00024276,
 0.00065849,-0.00196275,0.00080984,-0.00000788,-0.00042289,0.00028796,0
 .00076896,-0.00032476,0.00119593,-0.01236643,-0.01962148,0.01955727,-0
 .12013324,-0.08367309,0.07904444,-0.00070769,0.00016925,0.00014562,0.0
 0013909,0.00013382,-0.00013548,0.00081415,0.00016305,-0.00033413,-0.00
 833650,0.00035574,-0.00140791,0.00363758,0.00089421,-0.00168494,0.0000
 2079,-0.00000679,-0.00002584,0.00002871,0.00005835,-0.00002951,-0.0001
 4235,0.00028463,0.00002168,0.00075068,0.00012043,-0.00066133,0.0000301
 3,-0.00011870,0.00005903,-0.00002669,0.00002171,0.00001554,-0.00012936
 ,0.00003079,-0.00017002,0.00092103,0.00084399,-0.00040669,0.00839056,0
 .00974869,-0.00814492,0.12592308,0.00004894,0.00001934,-0.00001747,0.0
 0037249,-0.00015932,0.00003668,-0.00004580,-0.00000092,0.00010806,0.00
 003173,-0.00000734,0.00019379,0.00153359,-0.00148730,0.00122646,-0.088
 85986,-0.15939718,0.10114085,-0.00019306,0.00003758,0.00000072,-0.0001
 1135,0.00006420,-0.00000666,0.00013001,0.00017156,-0.00043100,-0.00038
 868,0.00105585,-0.00035072,0.00960380,0.01196877,-0.01522092,0.0000055
 2,0.00000132,0.00000711,0.00001552,0.00001691,-0.00002770,-0.00021116,
 0.00002872,-0.00008052,-0.00030789,0.00000336,-0.00004743,0.00001975,-
 0.00001942,0.00001269,0.00000596,-0.00000416,0.00001160,0.00000817,0.0
 0002189,0.00007845,0.00070657,0.00126067,0.00104627,-0.01529947,-0.016
 26756,0.01541271,0.09295116,0.16281578,-0.00009761,0.00019526,-0.00009
 900,0.00005077,-0.00072226,0.00062891,-0.00002996,-0.00020512,0.000034
 80,0.00037307,0.00061614,-0.00013767,-0.00047240,-0.00611319,0.0077685
 4,0.07396082,0.09576240,-0.13771738,-0.00033539,0.00003386,0.00004567,
 0.00005255,0.00005553,-0.00004828,-0.00004280,-0.00020533,0.00017408,-
 0.00485577,0.00010521,0.00045497,0.01596258,0.01209172,-0.03701510,0.0
 0000144,0.00000043,-0.00000009,0.00000481,0.00001719,-0.00000817,0.000
 03054,0.00008779,-0.00002530,0.00101411,-0.00019585,0.00007665,0.00002
 148,-0.00005354,0.00002429,-0.00000021,0.00001028,0.00000304,-0.000102
 31,-0.00003580,-0.00007076,0.00176501,0.00043589,0.00145993,0.00093244
 ,0.00150824,0.00150530,-0.08762039,-0.10282159,0.16270452,-0.00106764,
 0.00035723,0.00283430,-0.00250033,0.00067531,-0.00128517,-0.00016288,0
 .00058708,-0.00030858,-0.00007131,0.00004836,0.00003328,0.00216345,0.0
 0072812,-0.00098281,0.00026218,-0.00004746,0.00390983,0.00139201,-0.00
 043087,0.00030894,0.00013478,-0.00040657,0.00012457,-0.00013210,-0.000
 32050,0.00028993,-0.00271666,0.00003165,-0.00270373,-0.00471946,-0.002
 84138,0.00242348,-0.00049689,-0.00108690,-0.00057005,0.00001608,-0.000
 20633,0.00014006,0.00009583,-0.00000523,0.00003553,-0.00040387,-0.0002
 1536,0.00031766,-0.00008163,0.00020816,-0.00012131,-0.00002405,0.00000
 719,-0.00001445,0.00002078,0.00001371,-0.00006460,-0.00080242,-0.00117
 992,0.00067387,-0.00011612,-0.00018906,-0.00023197,-0.00008859,-0.0000
 1592,-0.00061279,0.00929882,0.00121088,-0.00015857,-0.00042679,0.00039
 876,0.00031138,0.00087815,0.00022752,0.00002106,0.00004538,0.00003126,
 -0.00012752,0.00071305,0.00058385,0.00025055,0.00086312,0.00005587,0.0
 0115002,0.00275733,-0.00029171,-0.00004085,0.00004786,-0.00014027,0.00
 001068,0.00002041,-0.00006221,-0.00001815,-0.00029228,-0.00061851,-0.0
 0100728,0.00016699,-0.00431410,-0.00421812,0.00219182,-0.00142021,-0.0
 0027473,-0.00054469,-0.00004650,-0.00003763,0.00000048,0.00008867,-0.0
 0035768,-0.00007064,-0.00019708,-0.00010152,-0.00005818,0.00006467,0.0
 0001894,0.00005380,0.00003281,-0.00001857,0.00001163,0.00002072,0.0000
 0903,0.00000534,-0.00008172,-0.00056940,-0.00009030,0.00011490,-0.0003
 4977,-0.00046602,0.00005372,-0.00012275,-0.00056725,0.00428868,0.00563
 088,0.00048417,-0.00047823,0.00013882,-0.00516593,0.00174453,0.0005764
 7,-0.00028764,0.00028481,-0.00016255,-0.00020546,0.00089193,-0.0005500
 1,0.00179496,0.00144994,-0.00453030,0.00089194,0.00003413,-0.00373216,
 0.00255672,-0.00072641,0.00015791,0.00062008,-0.00069498,0.00008744,0.
 00010732,-0.00082238,0.00089547,-0.00012017,0.00057036,-0.00766428,0.0
 0423960,0.00260400,-0.00458827,-0.00017097,-0.00022216,0.00053310,0.00
 005278,-0.00007362,0.00012731,-0.00009892,0.00029168,0.00005478,-0.000
 00586,-0.00014141,0.00071502,-0.00015754,0.00027302,-0.00016464,-0.000
 06338,0.00001818,-0.00009296,-0.00006755,0.00008265,-0.00017740,-0.000
 18121,0.00029326,0.00077609,0.00024640,0.00013127,0.00006306,-0.000273
 37,-0.00027136,0.00024105,-0.00419597,-0.00523919,0.01729607\\-0.00000
 455,0.00001482,-0.00000119,-0.00000223,0.00000382,0.00000004,0.0000063
 7,-0.00000956,-0.00002050,0.00000620,-0.00000925,-0.00001104,0.0000060
 5,-0.00000752,0.00001737,0.00000073,0.00000098,0.00003248,-0.00001066,
 0.00001177,-0.00002396,-0.00000153,-0.00000185,-0.00004481,0.00001801,
 -0.00002542,-0.00001912,-0.00000463,0.00000581,0.00001968,-0.00001521,
 0.00002065,0.00002384,-0.00001681,0.00002313,0.00001263,0.00001765,-0.
 00002489,-0.00002035,-0.00000451,0.00000445,-0.00001748,0.00001830,-0.
 00002216,0.00002462,-0.00000687,0.00000616,-0.00003764,0.00000548,-0.0
 0001182,-0.00005739,0.00002752,-0.00003770,-0.00001454,-0.00001757,0.0
 0002609,0.00003058,0.00000229,0.00000131,0.00005240,0.00000805,-0.0000
 0834,0.00002835,-0.00003208,0.00003952,0.00002604\\\@


 CHARLIE BROWN..'I CAN'T GET THAT STUPID KITE IN THE   
 AIR... I CAN'T... I C A N N O T...'                          
 LUCY..'OH COME NOW CHARLIE BROWN...THAT'S NO WAY TO TALK...  
 THE TROUBLE WITH YOU IS YOU DON'T BELIEVE IN YOURSELF... YOU 
 DON'T BELIEVE IN YOUR OWN ABILITIES...  YOU'VE GOT TO SAY TO 
 YOURSELF...'I BELIEVE I CAN FLY THIS KITE.'... GO AHEAD SAY  
 IT....'
 CHARLIE BROWN..'I BELIEVE THAT I CAN FLY THIS STUPID  
 KITE.....I BELIEVE THAT I CAN FLY THIS KITE........          
 I  A C T U A L L Y  B E L I E V E  T H A T  I  C A N ******' 
 LUCY..'I'LL BET YOU TEN-TO-ONE YOU'RE WRONG.......'    SCHULZ
 Job cpu time:  0 days  0 hours  0 minutes 29.4 seconds.
 File lengths (MBytes):  RWF=    900 Int=      0 D2E=      0 Chk=     23 Scr=      8
 Normal termination of Gaussian 09 at Tue Apr 10 05:55:31 2012.
